"SMILES","CASRN","EXTERNALID","N","NAME","NAME","ARTICLEID","PUBMEDID","PAGE","TABLE","Melting Point {measured}","UNIT {Melting Point}","Melting Point {measured, converted}","UNIT {Melting Point}"
"OC(=O)CCCC1=C(Br)C=CC=C1","-","EN300-111416","5853","4-(2-bromophenyl)butanoic acid","-","A55638","25489863","-","-","87.0 - 89.0","?C","88.0","Celsius"
"OC1CCN(CC#N)CC1","-","EN300-111418","5854","2-(4-hydroxypiperidin-1-yl)acetonitrile","-","A55638","25489863","-","-","76.0 - 78.0","?C","77.0","Celsius"
"CN(C)C1=C(F)C=C(C=C1F)C(N)=N","-","EN300-111432","5855","4-(dimethylamino)-3,5-difluorobenzene-1-carboximidamide","-","A55638","25489863","-","-","95.0 - 97.0","?C","96.0","Celsius"
"CCOC(=O)C1=C(N)OC(C)=C1C(C)=O","99076-38-7","EN300-11146","5856","ethyl 4-acetyl-2-amino-5-methyl-3-furoate","-","A55638","25489863","-","-","135.0 - 137.0","?C","136.0","Celsius"
"CCOC(=O)C1=C(C)C2=C(CC(C)(C)CC2=O)N1","37711-24-3","EN300-11147","5857","ethyl 3,6,6-trimethyl-4-oxo-4,5,6,7-tetrahydro-1H-indole-2-carboxylate","-","A55638","25489863","-","-","159.0 - 163.0","?C","161.0","Celsius"
"CC1CCCCN1S(=O)(=O)C1=CC=C(C=C1)C(O)=O","70111-45-4","EN300-11149","5858","4-[(2-methylpiperidin-1-yl)sulfonyl]benzoic acid","-","A55638","25489863","-","-","201.0 - 205.0","?C","203.0","Celsius"
"CC(CC(O)=O)C1CCNCC1","-","EN300-111504","5860","3-(piperidin-4-yl)butanoic acid","-","A55638","25489863","-","-","255.0 - 257.0","?C","256.0","Celsius"
"CC(C)OC1=CC(=CN=C1)C(O)=O","-","EN300-111512","5862","5-(propan-2-yloxy)pyridine-3-carboxylic acid","-","A55638","25489863","-","-","172.0 - 174.0","?C","173.0","Celsius"
"OC(=O)CCSCC1=NC2=C(C3=C(CCC3)S2)C(=O)N1","-","EN300-11153","5864","3-{[(4-oxo-3,5,6,7-tetrahydro-4H-cyclopenta[4,5]thieno[2,3-d]pyrimidin-2-yl)methyl]thio}propanoic acid","-","A55638","25489863","-","-","227.0 - 229.0","?C","228.0","Celsius"
"OC(=O)C1=C(F)C(Cl)=CC(=C1)S(Cl)(=O)=O","-","EN300-111543","5866","3-chloro-5-(chlorosulfonyl)-2-fluorobenzoic acid","-","A55638","25489863","-","-","169.0 - 171.0","?C","170.0","Celsius"
"ClCC(=O)C1=CC2=C(CCCC2)C=C1","5803-67-8","EN300-11155","5867","2-chloro-1-(5,6,7,8-tetrahydronaphthalen-2-yl)ethanone","-","A55638","25489863","-","-","62.0 - 64.0","?C","63.0","Celsius"
"CCOC(=O)C(C)(CC1=CC=NC=C1)C#N","-","EN300-111560","5868","ethyl 2-cyano-2-methyl-3-(pyridin-4-yl)propanoate","-","A55638","25489863","-","-","56.0 - 58.0","?C","57.0","Celsius"
"CN(C)C1=CC(=C(Br)C=C1)S(Cl)(=O)=O","-","EN300-111575","5869","2-bromo-5-(dimethylamino)benzene-1-sulfonyl chloride","-","A55638","25489863","-","-","111.0 - 113.0","?C","112.0","Celsius"
"CC(C)(C)C1=CC=C(CC(O)=O)C=C1","-","EN300-111584","5870","2-(4-tert-butylphenyl)acetic acid","-","A55638","25489863","-","-","76.0 - 78.0","?C","77.0","Celsius"
"NC(=O)CSC1=NN=C(S)S1","-","EN300-11159","5872","2-[(5-mercapto-1,3,4-thiadiazol-2-yl)thio]acetamide","-","A55638","25489863","-","-","192.0 - 194.0","?C","193.0","Celsius"
"OC(=O)CONS(=O)(=O)C1=CC=C(F)C=C1","-","EN300-11161","5873","({[(4-fluorophenyl)sulfonyl]amino}oxy)acetic acid","-","A55638","25489863","-","-","168.0 - 170.0","?C","169.0","Celsius"
"ClCC(=O)C1=CN(CCC#N)C2=C1C=CC=C2","-","EN300-11163","5875","3-[3-(chloroacetyl)-1H-indol-1-yl]propanenitrile","-","A55638","25489863","-","-","138.0 - 140.0","?C","139.0","Celsius"
"NC(=O)C1=CC(F)=C(CO)C=C1","-","EN300-111651","5876","3-fluoro-4-(hydroxymethyl)benzamide","-","A55638","25489863","-","-","103.0 - 105.0","?C","104.0","Celsius"
"COC(=O)C1=CC(Br)=C(N)S1","-","EN300-111658","5877","methyl 5-amino-4-bromothiophene-2-carboxylate","-","A55638","25489863","-","-","88.0 - 90.0","?C","89.0","Celsius"
"NC1(CC1)C1=CC(=CC=C1)C#N","-","EN300-111659","5878","3-(1-aminocyclopropyl)benzonitrile","-","A55638","25489863","-","-","67.0 - 69.0","?C","68.0","Celsius"
"FC(F)(F)C1=CC=C(C=C1)S(=O)(=O)N1CCNCC1","-","EN300-11167","5879","1-{[4-(trifluoromethyl)phenyl]sulfonyl}piperazine","-","A55638","25489863","-","-","163.0 - 169.0","?C","166.0","Celsius"
"OC(=O)C(CC#N)C1=CC=CC=C1","-","EN300-111690","5882","3-cyano-2-phenylpropanoic acid","-","A55638","25489863","-","-","64.0 - 66.0","?C","65.0","Celsius"
"COC1=C(C=C(F)C=C1)[N+]([O-])=O","-","EN300-111702","5884","4-fluoro-1-methoxy-2-nitrobenzene","-","A55638","25489863","-","-","62.0 - 64.0","?C","63.0","Celsius"
"CC1(NC(=O)NC1=O)C1=CC2=C(CCC2)C=C1","-","EN300-11171","5885","5-(2,3-dihydro-1H-inden-5-yl)-5-methylimidazolidine-2,4-dione","-","A55638","25489863","-","-","188.0 - 190.0","?C","189.0","Celsius"
"COCCN1N=C(C)C(C(C)=O)=C1C","-","EN300-111727","5887","1-[1-(2-methoxyethyl)-3,5-dimethyl-1H-pyrazol-4-yl]ethan-1-one","-","A55638","25489863","-","-","31.0 - 33.0","?C","32.0","Celsius"
"FC(F)(F)CNC(=O)C1=CC=C(C=C1)S(Cl)(=O)=O","-","EN300-11173","5888","4-{[(2,2,2-trifluoroethyl)amino]carbonyl}benzenesulfonyl chloride","-","A55638","25489863","-","-","139.0 - 141.0","?C","140.0","Celsius"
"OC(=O)C1=CC(=NN1C1=CC=CC=C1)C1=CC=C(Cl)C=C1","618102-33-3","EN300-11174","5889","3-(4-chlorophenyl)-1-phenyl-1H-pyrazole-5-carboxylic acid","-","A55638","25489863","-","-","214.0 - 216.0","?C","215.0","Celsius"
"ClCC(=O)N1N=C(CC1C1=CC=CO1)C1=CC2=C(O1)C=CC=C2","-","EN300-11176","5890","3-(1-benzofuran-2-yl)-1-(chloroacetyl)-5-(2-furyl)-4,5-dihydro-1H-pyrazole","-","A55638","25489863","-","-","165.0 - 167.0","?C","166.0","Celsius"
"CC1=CC(C)=C(C)C(C)=C1C(=O)CCl","-","EN300-11178","5891","2-chloro-1-(2,3,4,6-tetramethylphenyl)ethanone","-","A55638","25489863","-","-","61.0 - 63.0","?C","62.0","Celsius"
"ClCC1=COC(=N1)C1=CC=CS1","54679-74-2","EN300-11182","5892","4-(chloromethyl)-2-thien-2-yl-1,3-oxazole","-","A55638","25489863","-","-","45.0 - 57.0","?C","51.0","Celsius"
"CC1=C(Br)C(=CC=C1)S(Cl)(=O)=O","-","EN300-111820","5893","2-bromo-3-methylbenzene-1-sulfonyl chloride","-","A55638","25489863","-","-","56.0 - 58.0","?C","57.0","Celsius"
"OC(=O)C1=CC2=C(S1)C=CC=C2F","-","EN300-11183","5896","4-fluoro-1-benzothiophene-2-carboxylic acid","-","A55638","25489863","-","-","214.0 - 216.0","?C","215.0","Celsius"
"OC(=O)C=CC1=CC=C(C=C1)C#N","16642-94-7","EN300-11184","5897","3-(4-cyanophenyl)acrylic acid","-","A55638","25489863","-","-","250.0 - 252.0","?C","251.0","Celsius"
"OC(=O)C1=NN=C(S)NC1=O","-","EN300-111845","5898","5-oxo-3-sulfanyl-4,5-dihydro-1,2,4-triazine-6-carboxylic acid","-","A55638","25489863","-","-","229.0 - 231.0","?C","230.0","Celsius"
"CC1=NC(=CC(N)=N1)C1CC1","-","EN300-111856","5900","6-cyclopropyl-2-methylpyrimidin-4-amine","-","A55638","25489863","-","-","159.0 - 161.0","?C","160.0","Celsius"
"OC(=O)CN1C=NC(=N1)C#N","-","EN300-111863","5901","2-(3-cyano-1H-1,2,4-triazol-1-yl)acetic acid","-","A55638","25489863","-","-","96.0 - 98.0","?C","97.0","Celsius"
"CC(=O)NC1=CC(=CN=C1)C(=O)NN","-","EN300-111869","5902","N-[5-(hydrazinecarbonyl)pyridin-3-yl]acetamide","-","A55638","25489863","-","-","229.0 - 231.0","?C","230.0","Celsius"
"NC1=C(CO)C=NC=N1","-","EN300-111871","5904","(4-aminopyrimidin-5-yl)methanol","-","A55638","25489863","-","-","165.0 - 167.0","?C","166.0","Celsius"
"CC1=NN=C(O1)C1=CC(F)=C(Br)C=C1","-","EN300-111872","5905","2-(4-bromo-3-fluorophenyl)-5-methyl-1,3,4-oxadiazole","-","A55638","25489863","-","-","138.0 - 140.0","?C","139.0","Celsius"
"CC1=NC(SC2=CC=CC=C2)=C(C=C1)C(O)=O","-","EN300-111877","5906","6-methyl-2-(phenylsulfanyl)pyridine-3-carboxylic acid","-","A55638","25489863","-","-","169.0 - 171.0","?C","170.0","Celsius"
"ClCC(=O)N1CCNC1=O","-","EN300-11188","5907","1-(chloroacetyl)imidazolidin-2-one","-","A55638","25489863","-","-","195.0 - 197.0","?C","196.0","Celsius"
"ClCC1=CC(=CC=C1)C#N","64407-07-4","EN300-11189","5908","3-(chloromethyl)benzonitrile","-","A55638","25489863","-","-","67.0 - 70.0","?C","68.5","Celsius"
"ClS(=O)(=O)C1=CC2=C(CCC2)C=C1","52205-85-3","EN300-11191","5909","indane-5-sulfonyl chloride","-","A55638","25489863","-","-","33.0 - 42.0","?C","37.5","Celsius"
"CC1=C(SC2=CC=C(C=C2)C(O)=O)C=CC=C1","-","EN300-111948","5912","4-[(2-methylphenyl)sulfanyl]benzoic acid","-","A55638","25489863","-","-","178.0 - 180.0","?C","179.0","Celsius"
"CC1(C)CC(=O)C2=C(O1)C(Cl)=CC(Br)=C2","-","EN300-111953","5913","6-bromo-8-chloro-2,2-dimethyl-3,4-dihydro-2H-1-benzopyran-4-one","-","A55638","25489863","-","-","48.0 - 50.0","?C","49.0","Celsius"
"COC1=C(Br)C=C(C=C1)C(=O)CCl","-","EN300-11196","5915","1-(3-bromo-4-methoxyphenyl)-2-chloroethanone","-","A55638","25489863","-","-","85.0 - 87.0","?C","86.0","Celsius"
"NC1=CC(=CC=C1)N1C=CN=N1","-","EN300-111966","5917","3-(1H-1,2,3-triazol-1-yl)aniline","-","A55638","25489863","-","-","118.0 - 120.0","?C","119.0","Celsius"
"CC1=NC2=C(C=NN2C2=NC=CC=N2)C(=O)N1","-","EN300-111971","5918","6-methyl-1-(pyrimidin-2-yl)-1H,4H,5H-pyrazolo[3,4-d]pyrimidin-4-one","-","A55638","25489863","-","-","343.0 - 345.0","?C","344.0","Celsius"
"CSCC[C@H](N)C(=O)NO","-","EN300-111972","5919","(2S)-2-amino-N-hydroxy-4-(methylsulfanyl)butanamide","-","A55638","25489863","-","-","148.0 - 150.0","?C","149.0","Celsius"
"O=C1CC2CCCC(C1)N2CC1=CC=CS1","-","EN300-111981","5920","9-(thiophen-2-ylmethyl)-9-azabicyclo[3.3.1]nonan-3-one","-","A55638","25489863","-","-","88.0 - 90.0","?C","89.0","Celsius"
"CC(=O)C1=CC(=CC(N)=C1)C(C)=O","-","EN300-111988","5921","1-(3-acetyl-5-aminophenyl)ethan-1-one","-","A55638","25489863","-","-","139.0 - 141.0","?C","140.0","Celsius"
"OC(=O)C1CCN(CC1)C1=C(Cl)C=C(C=N1)C(F)(F)F","-","EN300-11200","5922","1-[3-chloro-5-(trifluoromethyl)pyridin-2-yl]piperidine-4-carboxylic acid","-","A55638","25489863","-","-","134.0 - 136.0","?C","135.0","Celsius"
"OC(=O)CN1NC(=O)C=CC1=O","10158-72-2","EN300-11202","5926","(3,6-dioxo-3,6-dihydropyridazin-1(2H)-yl)acetic acid","-","A55638","25489863","-","-","235.0 - 237.0","?C","236.0","Celsius"
"COC1=C(Br)C=C(C=C1)C1=CSC(N)=N1","189011-00-5","EN300-11203","5927","4-(3-bromo-4-methoxyphenyl)-1,3-thiazol-2-amine","-","A55638","25489863","-","-","188.0 - 190.0","?C","189.0","Celsius"
"NC1=C(C=C(Cl)C=N1)S(N)(=O)=O","-","EN300-112031","5928","2-amino-5-chloropyridine-3-sulfonamide","-","A55638","25489863","-","-","226.0 - 228.0","?C","227.0","Celsius"
"BrC1=CC2=C(C=C1)C(CC#N)=CN2","-","EN300-112038","5929","2-(6-bromo-1H-indol-3-yl)acetonitrile","-","A55638","25489863","-","-","112.0 - 114.0","?C","113.0","Celsius"
"[O-][N+](=O)C1=C(C=CC(Cl)=C1)C#N","-","EN300-112039","5930","4-Chloro-2-nitrobenzonitrile","-","A55638","25489863","-","-","95.0 - 100.0","?C","97.5","Celsius"
"COC(=O)C(=O)CC(=O)C1=CC=CC=C1","20577-73-5","EN300-11205","5931","methyl 2,4-dioxo-4-phenylbutanoate","-","A55638","25489863","-","-","58.0 - 60.0","?C","59.0","Celsius"
"CN1C=NN=C1C1=CC=CC=C1","-","EN300-112050","5932","4-methyl-3-phenyl-4H-1,2,4-triazole","-","A55638","25489863","-","-","114.0 - 116.0","?C","115.0","Celsius"
"COCCCNC1=C(N)N(CC(C)C)C(=O)NC1=O","-","EN300-11206","5933","6-amino-1-isobutyl-5-[(3-methoxypropyl)amino]pyrimidine-2,4(1H,3H)-dione","-","A55638","25489863","-","-","179.0 - 181.0","?C","180.0","Celsius"
"CC(C)NO","-","EN300-112062","5934","N-(propan-2-yl)hydroxylamine","-","A55638","25489863","-","-","73.0 - 75.0","?C","74.0","Celsius"
"CCOC(=O)C1=C(N)N=C(SC)N=C1","776-53-4","EN300-11207","5935","ethyl 4-amino-2-(methylthio)pyrimidine-5-carboxylate","-","A55638","25489863","-","-","110.0 - 120.0","?C","115.0","Celsius"
"OC1=CC=C(CC2CCC(=O)O2)C=C1","-","EN300-112078","5936","5-[(4-hydroxyphenyl)methyl]oxolan-2-one","-","A55638","25489863","-","-","104.0 - 106.0","?C","105.0","Celsius"
"OC(=O)C1=NC=CN2CCS(=O)(=O)N=C12","-","EN300-11209","5938","3,4-dihydropyrazino[2,1-c][1,2,4]thiadiazine-9-carboxylic acid 2,2-dioxide","-","A55638","25489863","-","-","183.0 - 187.0","?C","185.0","Celsius"
"CC1=C(C)C=C(C=C1)C1=NN(C=C1C=O)C1=CC=CC=C1","-","EN300-11210","5940","3-(3,4-dimethylphenyl)-1-phenyl-1H-pyrazole-4-carbaldehyde","-","A55638","25489863","-","-","102.0 - 104.0","?C","103.0","Celsius"
"OC(=O)CC1=CC=C(OCC2=NC=CC=C2)C=C1","-","EN300-112110","5941","2-[4-(pyridin-2-ylmethoxy)phenyl]acetic acid","-","A55638","25489863","-","-","153.0 - 155.0","?C","154.0","Celsius"
"NC1=NN=C(N1)C1=CC=CC=C1","4922-98-9","EN300-11212","5942","5-phenyl-4H-1,2,4-triazol-3-amine","-","A55638","25489863","-","-","55.0 - 57.0","?C","56.0","Celsius"
"NC(CC1=CN=CC=C1)=NO","-","EN300-112128","5943","N'-hydroxy-2-(pyridin-3-yl)ethanimidamide","-","A55638","25489863","-","-","149.0 - 151.0","?C","150.0","Celsius"
"NC1=NC=C(CC2=CC=CC=C2)S1","121952-97-4","EN300-11214","5944","5-benzyl-1,3-thiazol-2-amine","-","A55638","25489863","-","-","106.0 - 108.0","?C","107.0","Celsius"
"ClC1=CN=CC2=NNC(=O)N12","-","EN300-112165","5948","5-chloro-2H,3H-[1,2,4]triazolo[4,3-a]pyrazin-3-one","-","A55638","25489863","-","-","169.0 - 171.0","?C","170.0","Celsius"
"CCC1=NC(=NN1)C1=CC=C(C=C1)C(O)=O","-","EN300-112195","5951","4-(5-ethyl-1H-1,2,4-triazol-3-yl)benzoic acid","-","A55638","25489863","-","-","229.0 - 231.0","?C","230.0","Celsius"
"CC1=C(N)N=CC(C=CC(O)=O)=C1","-","EN300-112197","5952","3-(6-amino-5-methylpyridin-3-yl)prop-2-enoic acid","-","A55638","25489863","-","-","229.0 - 231.0","?C","230.0","Celsius"
"COC1=C(CCl)C=C(F)C=C1","19415-40-8","EN300-11220","5953","2-(chloromethyl)-4-fluoro-1-methoxybenzene","-","A55638","25489863","-","-","52.0 - 53.0","?C","52.5","Celsius"
"NC1=CC(C=CC(O)=O)=CC=C1","-","EN300-112203","5954","3-(3-aminophenyl)prop-2-enoic acid","-","A55638","25489863","-","-","173.0 - 175.0","?C","174.0","Celsius"
"ClCC1=C(Br)C=C2OCCOC2=C1","-","EN300-11221","5955","6-bromo-7-(chloromethyl)-2,3-dihydro-1,4-benzodioxine","-","A55638","25489863","-","-","117.0 - 119.0","?C","118.0","Celsius"
"OC(=O)C1=C(Cl)C=C(C=N1)C#N","-","EN300-112219","5956","3-chloro-5-cyanopyridine-2-carboxylic acid","-","A55638","25489863","-","-","149.0 - 151.0","?C","150.0","Celsius"
"ClC1=CC(=CC=C1)C(=O)C=C1NC(=O)CS1","-","EN300-11225","5960","(2E)-2-[2-(3-chlorophenyl)-2-oxoethylidene]-1,3-thiazolidin-4-one","-","A55638","25489863","-","-","207.0 - 209.0","?C","208.0","Celsius"
"CC1CCN(CC2=CSC(N)=N2)CC1","-","EN300-11226","5962","4-[(4-methylpiperidin-1-yl)methyl]-1,3-thiazol-2-amine","-","A55638","25489863","-","-","145.0 - 147.0","?C","146.0","Celsius"
"OC(=O)C1=CC=C(C=C1)N1CCCC2=C1C=CC=C2","-","EN300-112268","5963","4-(1,2,3,4-tetrahydroquinolin-1-yl)benzoic acid","-","A55638","25489863","-","-","214.0 - 216.0","?C","215.0","Celsius"
"COC1=C(C=C(C(Br)=C1)S(Cl)(=O)=O)C(O)=O","-","EN300-112285","5966","4-bromo-5-(chlorosulfonyl)-2-methoxybenzoic acid","-","A55638","25489863","-","-","196.0 - 198.0","?C","197.0","Celsius"
"CCCCN1N=CC(C(O)=O)=C1C","-","EN300-112288","5967","1-butyl-5-methyl-1H-pyrazole-4-carboxylic acid","-","A55638","25489863","-","-","77.0 - 79.0","?C","78.0","Celsius"
"O=S1(=O)CCC2(CO2)CC1","-","EN300-112306","5968","1-oxa-6$l^{6}-thiaspiro[2.5]octane-6,6-dione","-","A55638","25489863","-","-","168.0 - 170.0","?C","169.0","Celsius"
"CN1C=NN=C1CO","-","EN300-112346","5970","(4-methyl-4H-1,2,4-triazol-3-yl)methanol","-","A55638","25489863","-","-","49.0 - 51.0","?C","50.0","Celsius"
"CNC(=O)C1=CC(N)=CC=C1","25900-61-2","EN300-11235","5971","3-amino-N-methylbenzamide","-","A55638","25489863","-","-","122.0 - 124.0","?C","123.0","Celsius"
"CCNS(=O)(=O)C1=CC(C(O)=O)=C(C)C=C1","-","EN300-11236","5972","5-[(ethylamino)sulfonyl]-2-methylbenzoic acid","-","A55638","25489863","-","-","181.0 - 183.0","?C","182.0","Celsius"
"CCOC(=O)C1=C(N)SC2=C1CCN(C2)C(C)C","74022-33-6","EN300-11237","5973","ethyl 2-amino-6-isopropyl-4,5,6,7-tetrahydrothieno[2,3-c]pyridine-3-carboxylate","-","A55638","25489863","-","-","81.0 - 83.0","?C","82.0","Celsius"
"OC(=O)C1CCN(CC1)C1=C(C=CC=C1)[N+]([O-])=O","-","EN300-11239","5974","1-(2-nitrophenyl)piperidine-4-carboxylic acid","-","A55638","25489863","-","-","158.0 - 160.0","?C","159.0","Celsius"
"NC1=CC(OC2=NC=C(Br)C=N2)=CC=C1","-","EN300-112400","5975","3-[(5-bromopyrimidin-2-yl)oxy]aniline","-","A55638","25489863","-","-","92.0 - 94.0","?C","93.0","Celsius"
"BrCCN1C(=O)C2=C(C=CC=C2)S1(=O)=O","7248-71-7","EN300-11241","5977","2-(2-bromoethyl)-1,2-benzisothiazol-3(2H)-one 1,1-dioxide","-","A55638","25489863","-","-","94.0 - 96.0","?C","95.0","Celsius"
"NN1C(S)=NN=C1SCC1=CC=CC=C1","90535-72-1","EN300-11244","5979","4-amino-5-(benzylthio)-4H-1,2,4-triazole-3-thiol","-","A55638","25489863","-","-","157.0 - 159.0","?C","158.0","Celsius"
"NC(=O)C1=NN=C(N)C=C1","-","EN300-112454","5980","6-aminopyridazine-3-carboxamide","-","A55638","25489863","-","-","256.0 - 258.0","?C","257.0","Celsius"
"CC1=C(Cl)C=C(C=CC(O)=O)C=C1","-","EN300-11246","5981","(2E)-3-(3-chloro-4-methylphenyl)acrylic acid","-","A55638","25489863","-","-","194.0 - 196.0","?C","195.0","Celsius"
"NC1=C(Cl)C=CC(Cl)=N1","-","EN300-112464","5982","3,6-dichloropyridin-2-amine","-","A55638","25489863","-","-","94.0 - 96.0","?C","95.0","Celsius"
"CN1C(=O)OC2=C1C=CC=C2C(O)=O","-","EN300-112488","5983","3-methyl-2-oxo-2,3-dihydro-1,3-benzoxazole-7-carboxylic acid","-","A55638","25489863","-","-","309.0 - 311.0","?C","310.0","Celsius"
"OC(=O)CSC1=NC2=C(C=CC=C2)N=C1","69001-90-7","EN300-11249","5984","(quinoxalin-2-ylthio)acetic acid","-","A55638","25489863","-","-","178.0 - 180.0","?C","179.0","Celsius"
"ClC1=C(CC#N)C=CC=N1","-","EN300-112503","5985","2-(2-chloropyridin-3-yl)acetonitrile","-","A55638","25489863","-","-","80.0 - 82.0","?C","81.0","Celsius"
"OC(=O)C1=C(F)C(OC(F)F)=CC=C1F","-","EN300-112509","5986","3-(difluoromethoxy)-2,6-difluorobenzoic acid","-","A55638","25489863","-","-","90.0 - 92.0","?C","91.0","Celsius"
"COC(=O)C1=NOC=N1","-","EN300-112510","5987","methyl 1,2,4-oxadiazole-3-carboxylate","-","A55638","25489863","-","-","34.0 - 36.0","?C","35.0","Celsius"
"COC1=CC2=C(C=C1)N=C(C=C2C(O)=O)C1CC1","-","EN300-112516","5988","2-cyclopropyl-6-methoxyquinoline-4-carboxylic acid","-","A55638","25489863","-","-","219.0 - 221.0","?C","220.0","Celsius"
"NC1=CN(N=C1)C1=CC=C(C=C1)C(F)(F)F","-","EN300-112517","5989","1-[4-(trifluoromethyl)phenyl]-1H-pyrazol-4-amine","-","A55638","25489863","-","-","159.0 - 161.0","?C","160.0","Celsius"
"CC1=C(C=C(C=C1)S(=O)(=O)NCC1=CC=CO1)C(O)=O","-","EN300-11252","5990","5-{[(2-furylmethyl)amino]sulfonyl}-2-methylbenzoic acid","-","A55638","25489863","-","-","178.0 - 180.0","?C","179.0","Celsius"
"CC1(CCCC(O)=O)NC(=O)NC1=O","-","EN300-112521","5991","4-(4-methyl-2,5-dioxoimidazolidin-4-yl)butanoic acid","-","A55638","25489863","-","-","149.0 - 151.0","?C","150.0","Celsius"
"ClC1=CC2=C(C=C1)C1(CC2)NC(=O)NC1=O","-","EN300-112524","5992","5'-chloro-2',3'-dihydrospiro[imidazolidine-4,1'-indene]-2,5-dione","-","A55638","25489863","-","-","252.0 - 254.0","?C","253.0","Celsius"
"CC1=C(C=CC=C1C(F)(F)F)S(N)(=O)=O","-","EN300-112528","5993","2-methyl-3-(trifluoromethyl)benzene-1-sulfonamide","-","A55638","25489863","-","-","149.0 - 151.0","?C","150.0","Celsius"
"COCCCS(=O)(=O)NCC(O)=O","-","EN300-112561","5994","2-(3-methoxypropanesulfonamido)acetic acid","-","A55638","25489863","-","-","59.0 - 61.0","?C","60.0","Celsius"
"CN1C=C(C=C1C(=O)C(Cl)(Cl)Cl)C(C)=O","-","EN300-112566","5995","1-(4-acetyl-1-methyl-1H-pyrrol-2-yl)-2,2,2-trichloroethan-1-one","-","A55638","25489863","-","-","133.0 - 135.0","?C","134.0","Celsius"
"COC1=CC(Br)=C(OC)C=C1CCl","-","EN300-11259","5996","1-bromo-4-(chloromethyl)-2,5-dimethoxybenzene","-","A55638","25489863","-","-","65.0 - 67.0","?C","66.0","Celsius"
"CCOC(=O)C1=C(Cl)C2=C(C=C(C=N2)S(Cl)(=O)=O)N1C","-","EN300-112594","5997","ethyl 3-chloro-6-(chlorosulfonyl)-1-methyl-1H-pyrrolo[3,2-b]pyridine-2-carboxylate","-","A55638","25489863","-","-","141.0 - 143.0","?C","142.0","Celsius"
"CS(=O)(=O)C1=CC(Cl)=C(C(O)=O)C(Cl)=C1","-","EN300-112599","5998","2,6-dichloro-4-methanesulfonylbenzoic acid","-","A55638","25489863","-","-","144.0 - 146.0","?C","145.0","Celsius"
"CC(C)N(C)S(=O)(=O)C1=CC(C(O)=O)=C(Cl)C=C1","92316-53-5","EN300-11264","6002","2-chloro-5-{[isopropyl(methyl)amino]sulfonyl}benzoic acid","-","A55638","25489863","-","-","154.0 - 156.0","?C","155.0","Celsius"