"SMILES","CASRN","EXTERNALID","N","NAME","NAME","ARTICLEID","PUBMEDID","PAGE","TABLE","Melting Point {measured}","UNIT {Melting Point}","Melting Point {measured, converted}","UNIT {Melting Point}"
"NC1=C2N=C(OC2=CC=C1)C(F)(F)F","-","EN300-109853","5714","2-(trifluoromethyl)-1,3-benzoxazol-4-amine","-","A55638","25489863","-","-","49.0 - 51.0","?C","50.0","Celsius"
"OC1=CC=C(C=C1)C1=NOC(=N1)C1=CC(Br)=CC=C1","-","EN300-109854","5715","4-[5-(3-bromophenyl)-1,2,4-oxadiazol-3-yl]phenol","-","A55638","25489863","-","-","222.0 - 224.0","?C","223.0","Celsius"
"OC(=O)C1=C(F)C=C(O)C=C1","-","EN300-109857","5716","2-fluoro-4-hydroxybenzoic acid","-","A55638","25489863","-","-","202.0 - 204.0","?C","203.0","Celsius"
"CC1=C(F)C(=CC(=C1)S(Cl)(=O)=O)C(O)=O","-","EN300-109859","5717","5-(chlorosulfonyl)-2-fluoro-3-methylbenzoic acid","-","A55638","25489863","-","-","169.0 - 171.0","?C","170.0","Celsius"
"CC1=CC(C(O)=O)=C(Br)C=C1","-","EN300-109863","5718","2-Bromo-5-methylbenzoic acid","-","A55638","25489863","-","-","139.0 - 141.0","?C","140.0","Celsius"
"ClCC(=O)C1=CC2=C(CCC2)C=C1","41202-24-8","EN300-10988","5720","2-chloro-1-(2,3-dihydro-1H-inden-5-yl)ethanone","-","A55638","25489863","-","-","47.0 - 58.0","?C","52.5","Celsius"
"OC(=O)CCC(=O)C1=CC2=C(CCCC2)C=C1","785-17-1","EN300-10990","5721","4-oxo-4-(5,6,7,8-tetrahydronaphthalen-2-yl)butanoic acid","-","A55638","25489863","-","-","122.0 - 124.0","?C","123.0","Celsius"
"COC1=C(N)C=CC(=C1)S(N)(=O)=O","-","EN300-109915","5722","4-amino-3-methoxybenzene-1-sulfonamide","-","A55638","25489863","-","-","142.0 - 144.0","?C","143.0","Celsius"
"CCC(C)NS(=O)(=O)C1=CC(N)=CC=C1","-","EN300-109916","5723","3-amino-N-(butan-2-yl)benzene-1-sulfonamide","-","A55638","25489863","-","-","89.0 - 91.0","?C","90.0","Celsius"
"OC(=O)C12CC3CC(CC(F)(C3)C1)C2","-","EN300-109918","5725","3-fluoroadamantane-1-carboxylic acid","-","A55638","25489863","-","-","109.0 - 111.0","?C","110.0","Celsius"
"N#CC1=CC=C(CN2CCNCC2)C=C1","89292-70-6","EN300-10992","5726","4-(piperazin-1-ylmethyl)benzonitrile","-","A55638","25489863","-","-","214.0 - 216.0","?C","215.0","Celsius"
"CC(C)(C)OC(=O)C1=CC=C(C=C1)C#N","-","EN300-109922","5727","tert-butyl 4-cyanobenzoate","-","A55638","25489863","-","-","74.0 - 76.0","?C","75.0","Celsius"
"NC1=NC=CC(CC#N)=C1","-","EN300-109923","5728","2-(2-aminopyridin-4-yl)acetonitrile","-","A55638","25489863","-","-","104.0 - 106.0","?C","105.0","Celsius"
"CC1=NN=C2C=C(Cl)N=CN12","-","EN300-109924","5729","7-chloro-3-methyl-[1,2,4]triazolo[4,3-c]pyrimidine","-","A55638","25489863","-","-","122.0 - 124.0","?C","123.0","Celsius"
"O=C1NC2=C(C=CC=C2)N2C=NC=C12","-","EN300-109925","5730","4H,5H-imidazo[1,5-a]quinoxalin-4-one","-","A55638","25489863","-","-","349.0 - 351.0","?C","350.0","Celsius"
"CCN(CC)S(=O)(=O)C1=CC(=C(C=C1)N1CCC(CC1)C(O)=O)[N+]([O-])=O","-","EN300-10994","5731","1-{4-[(diethylamino)sulfonyl]-2-nitrophenyl}piperidine-4-carboxylic acid","-","A55638","25489863","-","-","204.0 - 206.0","?C","205.0","Celsius"
"OC(=O)C1=C(CCC1)C#N","-","EN300-109946","5733","2-cyanocyclopent-1-ene-1-carboxylic acid","-","A55638","25489863","-","-","108.0 - 110.0","?C","109.0","Celsius"
"OC(=O)C1CCN(CC1)C1=C(C=C(C=C1)S(=O)(=O)N1CCCCC1)[N+]([O-])=O","-","EN300-10995","5734","1-[2-nitro-4-(piperidin-1-ylsulfonyl)phenyl]piperidine-4-carboxylic acid","-","A55638","25489863","-","-","241.0 - 243.0","?C","242.0","Celsius"
"CN1N=C(C=C1N)C1CCCCC1","-","EN300-109990","5735","3-cyclohexyl-1-methyl-1H-pyrazol-5-amine","-","A55638","25489863","-","-","169.0 - 171.0","?C","170.0","Celsius"
"NC(=S)C1CCOC1","-","EN300-109995","5736","oxolane-3-carbothioamide","-","A55638","25489863","-","-","102.0 - 104.0","?C","103.0","Celsius"
"NC1=NC=C(C=C1)C1=NC2=C(S1)C=CC=C2","-","EN300-11000","5737","5-(1,3-benzothiazol-2-yl)pyridin-2-amine","-","A55638","25489863","-","-","187.0 - 189.0","?C","188.0","Celsius"
"OC(C(O)=O)C1=CC(=CC=C1)C(O)=O","-","EN300-110015","5741","3-[carboxy(hydroxy)methyl]benzoic acid","-","A55638","25489863","-","-","189.0 - 191.0","?C","190.0","Celsius"
"NS(=O)(=O)C1=C(O)C=CC=C1","-","EN300-110016","5742","2-hydroxybenzene-1-sulfonamide","-","A55638","25489863","-","-","135.0 - 137.0","?C","136.0","Celsius"
"NC(=N)C1=NC=C(C=C1)N1CCCC1","-","EN300-110027","5743","5-(pyrrolidin-1-yl)pyridine-2-carboximidamide","-","A55638","25489863","-","-","209.0 - 211.0","?C","210.0","Celsius"
"CC(C)C1=CC=C(C=C1)S(=O)(=O)NCCC(O)=O","-","EN300-11003","5744","3-{[(4-isopropylphenyl)sulfonyl]amino}propanoic acid","-","A55638","25489863","-","-","195.0 - 205.0","?C","200.0","Celsius"
"BrC1=CC=C(S1)S(=O)(=O)N1CCNCC1","725688-07-3","EN300-11004","5746","1-[(5-bromothien-2-yl)sulfonyl]piperazine","-","A55638","25489863","-","-","195.0 - 205.0","?C","200.0","Celsius"
"NC1=CC(C(O)=O)=C(Br)C=C1","-","EN300-110048","5747","5-amino-2-bromobenzoic acid","-","A55638","25489863","-","-","171.0 - 179.0","?C","175.0","Celsius"
"CCC1=C(C=CC=C1)C(O)=O","-","EN300-110064","5748","2-Ethylbenzoic acid","-","A55638","25489863","-","-","62.0 - 66.0","?C","64.0","Celsius"
"CN1C(S)=NC2=C1C=CC(=C2)S(N)(=O)=O","-","EN300-11008","5750","2-mercapto-1-methyl-1H-benzimidazole-5-sulfonamide","-","A55638","25489863","-","-","313.0 - 315.0","?C","314.0","Celsius"
"CC1=CC(Br)=C(OC2=CC=C3NC=CC=C3C2=N)C=C1","-","EN300-110087","5751","6-(2-bromo-4-methylphenoxy)quinolin-5-amine","-","A55638","25489863","-","-","259.0 - 261.0","?C","260.0","Celsius"
"CC1=CC=CC(C)=C1NC(=O)C(O)=O","-","EN300-110118","5752","[(2,6-dimethylphenyl)carbamoyl]formic acid","-","A55638","25489863","-","-","163.0 - 165.0","?C","164.0","Celsius"
"COC(=O)C1=CC2=C(S1)C=C(F)C=C2","-","EN300-110120","5753","methyl 6-fluoro-1-benzothiophene-2-carboxylate","-","A55638","25489863","-","-","88.0 - 90.0","?C","89.0","Celsius"
"OC(=O)C1=CC(=CC=C1)S(=O)(=O)NC1=CC2=C(OCO2)C=C1","-","EN300-11014","5754","3-[(1,3-benzodioxol-5-ylamino)sulfonyl]benzoic acid","-","A55638","25489863","-","-","249.0 - 251.0","?C","250.0","Celsius"
"O=S(=O)(CC1=CC=CC=C1)N1CCNCC1","-","EN300-11018","5757","1-(benzylsulfonyl)piperazine","-","A55638","25489863","-","-","129.0 - 131.0","?C","130.0","Celsius"
"OC(=O)C1=C(Br)C=CC(=C1)S(=O)(=O)N1CCCCC1","-","EN300-11022","5758","2-bromo-5-(piperidin-1-ylsulfonyl)benzoic acid","-","A55638","25489863","-","-","230.0 - 232.0","?C","231.0","Celsius"
"ClS(=O)(=O)C1=CC2=C(CCCC2)C=C1","61551-49-3","EN300-11024","5759","5,6,7,8-tetrahydronaphthalene-2-sulfonyl chloride","-","A55638","25489863","-","-","44.0 - 46.0","?C","45.0","Celsius"
"NC(=O)C1=CN(CCC#N)N=C1","-","EN300-110241","5760","1-(2-cyanoethyl)-1H-pyrazole-4-carboxamide","-","A55638","25489863","-","-","179.0 - 181.0","?C","180.0","Celsius"
"CCOC(=O)C1=C(C)C2=C(CCCC2=O)N1","7272-58-4","EN300-11026","5761","ethyl 3-methyl-4-oxo-4,5,6,7-tetrahydro-1H-indole-2-carboxylate","-","A55638","25489863","-","-","159.0 - 161.0","?C","160.0","Celsius"
"NC(=O)C1(CC1)C1=CC(Cl)=CC=C1","-","EN300-110272","5763","1-(3-chlorophenyl)cyclopropane-1-carboxamide","-","A55638","25489863","-","-","99.0 - 101.0","?C","100.0","Celsius"
"CC(C)CNS(=O)(=O)C1=CC(C(O)=O)=C(Br)C=C1","-","EN300-11028","5764","2-bromo-5-[(isobutylamino)sulfonyl]benzoic acid","-","A55638","25489863","-","-","174.0 - 176.0","?C","175.0","Celsius"
"OC1=C(C=CC(Br)=C1)C(F)(F)F","-","EN300-110280","5765","5-bromo-2-(trifluoromethyl)phenol","-","A55638","25489863","-","-","89.0 - 91.0","?C","90.0","Celsius"
"NC1=C(Br)N=CC=N1","-","EN300-110283","5766","3-bromopyrazin-2-amine","-","A55638","25489863","-","-","129.0 - 131.0","?C","130.0","Celsius"
"NN1C(S)=NN=C1C1=CC=C(Br)C=C1","-","EN300-110284","5767","4-amino-5-(4-bromophenyl)-4H-1,2,4-triazole-3-thiol","-","A55638","25489863","-","-","202.0 - 204.0","?C","203.0","Celsius"
"OC(=O)C1=CC=C(C=C1)S(=O)(=O)NCC1CCCO1","325851-59-0","EN300-11029","5768","4-{[(tetrahydrofuran-2-ylmethyl)amino]sulfonyl}benzoic acid","-","A55638","25489863","-","-","169.0 - 171.0","?C","170.0","Celsius"
"CCC(C)NS(=O)(=O)C1=CC(=CC=C1)C(O)=O","7326-76-3","EN300-11030","5770","3-[(sec-butylamino)sulfonyl]benzoic acid","-","A55638","25489863","-","-","155.0 - 157.0","?C","156.0","Celsius"
"FC(F)(F)C(=O)CC1=CC=C(Br)C=C1","-","EN300-110308","5771","3-(4-bromophenyl)-1,1,1-trifluoropropan-2-one","-","A55638","25489863","-","-","38.0 - 40.0","?C","39.0","Celsius"
"CNS(=O)(=O)C1=C(C)C(N)=CC=C1","-","EN300-110319","5772","3-amino-N,2-dimethylbenzene-1-sulfonamide","-","A55638","25489863","-","-","125.0 - 127.0","?C","126.0","Celsius"
"CCNS(=O)(=O)C1=CC=C(C=C1)C(O)=O","10252-64-9","EN300-11033","5773","4-[(ethylamino)sulfonyl]benzoic acid","-","A55638","25489863","-","-","219.0 - 221.0","?C","220.0","Celsius"
"CCC(C)NS(=O)(=O)C1=CC=C(C=C1)C(O)=O","-","EN300-11034","5774","4-[(sec-butylamino)sulfonyl]benzoic acid","-","A55638","25489863","-","-","219.0 - 221.0","?C","220.0","Celsius"
"CC(N(C)C1=NC=CN2C=NN=C12)C(O)=O","-","EN300-110345","5775","2-[methyl({[1,2,4]triazolo[4,3-a]pyrazin-8-yl})amino]propanoic acid","-","A55638","25489863","-","-","153.0 - 155.0","?C","154.0","Celsius"
"OC(=O)C1=CC=C(C=C1)S(=O)(=O)NCC=C","-","EN300-11035","5776","4-[(allylamino)sulfonyl]benzoic acid","-","A55638","25489863","-","-","215.0 - 217.0","?C","216.0","Celsius"
"CC1=CC(C(=O)CCl)=C(C)N1C1=NOC=C1","-","EN300-11036","5777","2-chloro-1-(1-isoxazol-3-yl-2,5-dimethyl-1H-pyrrol-3-yl)ethanone","-","A55638","25489863","-","-","87.0 - 89.0","?C","88.0","Celsius"
"CC(C)(C)OC(=O)NC1=CC(CCl)=CC=C1","-","EN300-110362","5778","tert-butyl N-[3-(chloromethyl)phenyl]carbamate","-","A55638","25489863","-","-","103.0 - 105.0","?C","104.0","Celsius"
"CN1C=NC(=C1Br)[N+]([O-])=O","-","EN300-110363","5779","5-BROMO-1-METHYL-4-NITRO-1H-IMIDAZOLE","-","A55638","25489863","-","-","177.0 - 179.0","?C","178.0","Celsius"
"CN1C=CN=C1C1=NOC(N)=N1","-","EN300-110384","5780","3-(1-methyl-1H-imidazol-2-yl)-1,2,4-oxadiazol-5-amine","-","A55638","25489863","-","-","197.0 - 199.0","?C","198.0","Celsius"
"CN1C=CN=C1C1=NOC(N)=C1","-","EN300-110385","5781","3-(1-methyl-1H-imidazol-2-yl)-1,2-oxazol-5-amine","-","A55638","25489863","-","-","178.0 - 180.0","?C","179.0","Celsius"
"CN1C=CN=C1C1=NNC(N)=C1","-","EN300-110386","5782","3-(1-methyl-1H-imidazol-2-yl)-1H-pyrazol-5-amine","-","A55638","25489863","-","-","167.0 - 169.0","?C","168.0","Celsius"
"CCNS(=O)(=O)C1=CC(C(O)=O)=C(Br)C=C1","-","EN300-11039","5783","2-bromo-5-[(ethylamino)sulfonyl]benzoic acid","-","A55638","25489863","-","-","198.0 - 200.0","?C","199.0","Celsius"
"CC(C)NS(=O)(=O)C1=C(C=CC=C1)C(O)=O","-","EN300-11040","5784","2-[(isopropylamino)sulfonyl]benzoic acid","-","A55638","25489863","-","-","111.0 - 113.0","?C","112.0","Celsius"
"OC(=O)CNS(=O)(=O)C1=C2N=S=NC2=CC=C1","-","EN300-11042","5785","4-{[(1-carboxymethyl)amino]sulfonyl}-2,1,3-benzothiadiazol","-","A55638","25489863","-","-","270.0 - 272.0","?C","271.0","Celsius"
"CC1=C(C)C(C)=C(S)C(C)=C1C","42448-56-6","EN300-11043","5786","pentamethylbenzenethiol","-","A55638","25489863","-","-","62.0 - 64.0","?C","63.0","Celsius"
"CC(C)(C)OC(=O)NC1(CO)CC1","-","EN300-110448","5789","tert-butyl N-[1-(hydroxymethyl)cyclopropyl]carbamate","-","A55638","25489863","-","-","75.0 - 77.0","?C","76.0","Celsius"
"CC(=O)CC(=O)CCN1C(=O)C2=C(C=CC=C2)C1=O","-","EN300-110450","5790","2-(3,5-dioxohexyl)-2,3-dihydro-1H-isoindole-1,3-dione","-","A55638","25489863","-","-","104.0 - 106.0","?C","105.0","Celsius"
"CN(C)S(=O)(=O)C1=CNC(=O)C=C1","-","EN300-11048","5792","N,N-dimethyl-6-oxo-1,6-dihydropyridine-3-sulfonamide","-","A55638","25489863","-","-","212.0 - 216.0","?C","214.0","Celsius"
"BrCC1=CC=C(C=C1)C(=O)C1=CC=CC=C1","-","EN300-110494","5794","[4-(Bromomethyl)phenyl](phenyl)methanone","-","A55638","25489863","-","-","109.0 - 112.0","?C","110.0","Celsius"
"CSC1=CC=C(C=C1)C(=O)CCC(O)=O","7028-67-3","EN300-11051","5795","4-[4-(methylthio)phenyl]-4-oxobutanoic acid","-","A55638","25489863","-","-","152.0 - 154.0","?C","153.0","Celsius"
"CN1C2=C(N(CCCC(O)=O)C=N2)C(=O)N(C)C1=O","52083-48-4","EN300-11053","5797","4-(1,3-dimethyl-2,6-dioxo-1,2,3,6-tetrahydro-7H-purin-7-yl)butanoic acid","-","A55638","25489863","-","-","167.0 - 169.0","?C","168.0","Celsius"
"OC(=O)CN1C2=C3C(=CC=CC3=CC=C2)S1(=O)=O","-","EN300-11055","5798","(1,1-dioxido-2H-naphtho[1,8-cd]isothiazol-2-yl)acetic acid","-","A55638","25489863","-","-","216.0 - 218.0","?C","217.0","Celsius"
"OC(=O)C1CCN(CC1)C1=NC2=C(O1)C=CC=C2","-","EN300-11057","5799","1-(1,3-benzoxazol-2-yl)piperidine-4-carboxylic acid","-","A55638","25489863","-","-","147.0 - 149.0","?C","148.0","Celsius"
"COC1=C2OCOC2=CC(C=O)=C1","5780-07-4","EN300-11058","5800","7-Methoxy-1,3-benzodioxole-5-carbaldehyde","-","A55638","25489863","-","-","130.0 - 134.0","?C","132.0","Celsius"
"NC(=O)C1=C(O)C=CC(=C1)S(=O)(=O)N1CCCC1","-","EN300-11060","5801","2-hydroxy-5-(pyrrolidin-1-ylsulfonyl)benzamide","-","A55638","25489863","-","-","254.0 - 260.0","?C","257.0","Celsius"
"CC1CCN(C(=O)CCl)C2=C(S1)C=CC=C2","-","EN300-11061","5802","5-(chloroacetyl)-2-methyl-2,3,4,5-tetrahydro-1,5-benzothiazepine","-","A55638","25489863","-","-","125.0 - 127.0","?C","126.0","Celsius"
"COC1=CC(O)=C(C=C1)C(N)=O","6745-77-3","EN300-11062","5803","2-hydroxy-4-methoxybenzamide","-","A55638","25489863","-","-","145.0 - 147.0","?C","146.0","Celsius"
"NS(=O)(=O)C1=CC(=C(C=C1)N1CCC(CC1)C(O)=O)[N+]([O-])=O","-","EN300-11063","5804","1-[4-(aminosulfonyl)-2-nitrophenyl]piperidine-4-carboxylic acid","-","A55638","25489863","-","-","181.0 - 183.0","?C","182.0","Celsius"
"NNC1=C2C=CSC2=NC=N1","14080-58-1","EN300-11065","5807","4-hydrazinothieno[2,3-d]pyrimidine","-","A55638","25489863","-","-","211.0 - 213.0","?C","212.0","Celsius"
"COC1=C(O)C(=CC=C1)C(N)=O","26751-04-2","EN300-11066","5808","2-hydroxy-3-methoxybenzamide","-","A55638","25489863","-","-","155.0 - 157.0","?C","156.0","Celsius"
"OC(=O)CCC(=O)N1CCN(CC1)C1=NC=CC=N1","-","EN300-110676","5809","4-oxo-4-[4-(pyrimidin-2-yl)piperazin-1-yl]butanoic acid","-","A55638","25489863","-","-","166.0 - 168.0","?C","167.0","Celsius"
"OC(=O)C1=CN(CC2=CC=CC=C2)N=C1C1=CC=CS1","-","EN300-11069","5810","1-benzyl-3-thien-2-yl-1H-pyrazole-4-carboxylic acid","-","A55638","25489863","-","-","131.0 - 133.0","?C","132.0","Celsius"
"NC1=NC(=CN1N=CC1=CC=CC=C1)C1=CC=CC=C1","28734-00-1","EN300-11070","5811","4-phenyl-N~1~-[(1E)-phenylmethylene]-1H-imidazole-1,2-diamine","-","A55638","25489863","-","-","202.0 - 204.0","?C","203.0","Celsius"
"CC1CCCCN1S(=O)(=O)C1=CC(=CC=C1)C(O)=O","-","EN300-11071","5813","3-[(2-methylpiperidin-1-yl)sulfonyl]benzoic acid","-","A55638","25489863","-","-","149.0 - 151.0","?C","150.0","Celsius"
"[O-][N+](=O)C1=C(F)C=CC(NS(=O)(=O)C2=CC3=C(OCCCO3)C=C2)=C1","-","EN300-11072","5814","N-(4-fluoro-3-nitrophenyl)-3,4-dihydro-2H-1,5-benzodioxepine-7-sulfonamide","-","A55638","25489863","-","-","145.0 - 147.0","?C","146.0","Celsius"
"OC(=O)CCNS(=O)(=O)C1=CC2=C(CCCC2)C=C1","-","EN300-11073","5815","3-[(5,6,7,8-tetrahydronaphthalen-2-ylsulfonyl)amino]propanoic acid","-","A55638","25489863","-","-","106.0 - 110.0","?C","108.0","Celsius"
"CC(NS(=O)(=O)C1=CC(=CC=C1)C(O)=O)C1=CC=CC=C1","-","EN300-11074","5816","3-{[(1-phenylethyl)amino]sulfonyl}benzoic acid","-","A55638","25489863","-","-","149.0 - 151.0","?C","150.0","Celsius"
"CC1=CC(C(=O)CCl)=C(C)N1CC1=CC=C(F)C=C1","-","EN300-11077","5817","2-chloro-1-[1-(4-fluorobenzyl)-2,5-dimethyl-1H-pyrrol-3-yl]ethanone","-","A55638","25489863","-","-","94.0 - 96.0","?C","95.0","Celsius"
"CC1=CC(C(=O)CCl)=C(C)N1C1=CC=C(C=C1)C(F)(F)F","-","EN300-11078","5818","2-chloro-1-{2,5-dimethyl-1-[4-(trifluoromethyl)phenyl]-1H-pyrrol-3-yl}ethanone","-","A55638","25489863","-","-","115.0 - 117.0","?C","116.0","Celsius"
"CC1=CC(C(=O)CCl)=C(C)N1C1=CC(Cl)=CC=C1","-","EN300-11079","5819","2-chloro-1-[1-(3-chlorophenyl)-2,5-dimethyl-1H-pyrrol-3-yl]ethanone","-","A55638","25489863","-","-","116.0 - 118.0","?C","117.0","Celsius"
"OC(=O)C1=CC=C(C=C1)S(=O)(=O)NC1CCS(=O)(=O)C1","-","EN300-11080","5820","4-{[(1,1-dioxidotetrahydrothien-3-yl)amino]sulfonyl}benzoic acid","-","A55638","25489863","-","-","303.0 - 305.0","?C","304.0","Celsius"
"CCOC(=O)C1=C(N)N(N=C1)C1=CC=C(OCC)C=C1","-","EN300-110801","5821","ethyl 5-amino-1-(4-ethoxyphenyl)-1H-pyrazole-4-carboxylate","-","A55638","25489863","-","-","119.0 - 121.0","?C","120.0","Celsius"
"CC1=C(Br)C=C2N=CNC2=N1","-","EN300-110854","5822","6-BROMO-5-METHYL-3H-IMIDAZO[4,5-b]PYRIDINE","-","A55638","25489863","-","-","197.0 - 199.0","?C","198.0","Celsius"
"CC1=C(C(O)=O)C(=NO1)C1=CC=NC=C1","-","EN300-110884","5823","5-methyl-3-(pyridin-4-yl)-1,2-oxazole-4-carboxylic acid","-","A55638","25489863","-","-","249.0 - 251.0","?C","250.0","Celsius"
"CC1=CC=C(C=C1)N1C=CC=C1","-","EN300-110918","5825","1-(4-methylphenyl)-1H-pyrrole","-","A55638","25489863","-","-","82.0 - 84.0","?C","83.0","Celsius"
"OC(=O)C1=CC=C(S1)C1=CC=C(Cl)C=C1","40133-14-0","EN300-11100","5827","5-(4-chlorophenyl)thiophene-2-carboxylic acid","-","A55638","25489863","-","-","260.0 - 262.0","?C","261.0","Celsius"
"OC(=O)C1=CC2=C(SCCC(=O)N2)C=C1","-","EN300-11104","5829","4-oxo-2,3,4,5-tetrahydro-1,5-benzothiazepine-7-carboxylic acid","-","A55638","25489863","-","-","262.0 - 264.0","?C","263.0","Celsius"
"NN1C(S)=NN=C1CC1=CC=CC=C1","-","EN300-111065","5830","4-amino-5-benzyl-4H-1,2,4-triazole-3-thiol","-","A55638","25489863","-","-","179.0 - 181.0","?C","180.0","Celsius"
"CC1=CC=CC(C)=C1CC(O)=O","-","EN300-111110","5833","2-(2,6-dimethylphenyl)acetic acid","-","A55638","25489863","-","-","117.0 - 119.0","?C","118.0","Celsius"
"CCOC(=O)C1=C(N)N=C(SC)S1","39736-29-3","EN300-11112","5834","ethyl 4-amino-2-(methylthio)-1,3-thiazole-5-carboxylate","-","A55638","25489863","-","-","80.0 - 82.0","?C","81.0","Celsius"
"CC1=C(CCC1)C(O)=O","-","EN300-111194","5836","2-methylcyclopent-1-ene-1-carboxylic acid","-","A55638","25489863","-","-","130.0 - 132.0","?C","131.0","Celsius"
"ClC1=CC(Cl)=NC(=N1)C1CC1","-","EN300-111202","5837","4,6-dichloro-2-cyclopropylpyrimidine","-","A55638","25489863","-","-","39.0 - 41.0","?C","40.0","Celsius"
"OCCNC(=O)C1=C(C=CC=C1)C(F)(F)F","-","EN300-111219","5838","N-(2-hydroxyethyl)-2-(trifluoromethyl)benzamide","-","A55638","25489863","-","-","61.0 - 63.0","?C","62.0","Celsius"
"CC(Cl)C(=O)C1=CNC2=C1C=CC=C2","17380-07-3","EN300-11122","5839","2-chloro-1-(1H-indol-3-yl)propan-1-one","-","A55638","25489863","-","-","190.0 - 192.0","?C","191.0","Celsius"
"CC(CC(O)=O)C1=CC=C(Br)C=C1","-","EN300-111249","5840","3-(4-bromophenyl)butanoic acid","-","A55638","25489863","-","-","101.0 - 103.0","?C","102.0","Celsius"
"NS(=O)(=O)C1=CC(C(O)=O)=C(F)C(Cl)=C1","-","EN300-111252","5841","3-chloro-2-fluoro-5-sulfamoylbenzoic acid","-","A55638","25489863","-","-","228.0 - 230.0","?C","229.0","Celsius"
"ClC1=CC(Cl)=C2CCC(=O)C2=C1","-","EN300-111258","5842","4,6-dichloro-2,3-dihydro-1H-inden-1-one","-","A55638","25489863","-","-","109.0 - 111.0","?C","110.0","Celsius"
"NC1=C(F)C=CC(Cl)=N1","-","EN300-111289","5844","6-chloro-3-fluoropyridin-2-amine","-","A55638","25489863","-","-","84.0 - 86.0","?C","85.0","Celsius"
"OC(=O)C1=CC=C(S1)C1=CC2=C(OCCO2)C=C1","-","EN300-11130","5845","5-(2,3-dihydro-1,4-benzodioxin-6-yl)thiophene-2-carboxylic acid","-","A55638","25489863","-","-","204.0 - 206.0","?C","205.0","Celsius"
"ClC1=NC(Cl)=C(Cl)N=N1","-","EN300-111347","5847","trichloro-1,2,4-triazine","-","A55638","25489863","-","-","56.0 - 58.0","?C","57.0","Celsius"
"COC1=C(OCC(=O)N2CCCC2)C=CC(C=O)=C1","-","EN300-11135","5848","3-methoxy-4-(2-oxo-2-pyrrolidin-1-ylethoxy)benzaldehyde","-","A55638","25489863","-","-","117.0 - 119.0","?C","118.0","Celsius"
"CN(C)C1=CC(F)=C(C=C1)C(O)=O","-","EN300-111353","5849","4-(dimethylamino)-2-fluorobenzoic acid","-","A55638","25489863","-","-","199.0 - 201.0","?C","200.0","Celsius"
"O=C1CCCC2=C1CC(CC#N)O2","-","EN300-111374","5850","2-(4-oxo-2,3,4,5,6,7-hexahydro-1-benzofuran-2-yl)acetonitrile","-","A55638","25489863","-","-","104.0 - 106.0","?C","105.0","Celsius"
"OC(=O)C=CC1=CC(Cl)=C(Br)C=C1","-","EN300-11140","5851","(2E)-3-(4-bromo-3-chlorophenyl)acrylic acid","-","A55638","25489863","-","-","175.0 - 186.0","?C","180.0","Celsius"