"SMILES","CASRN","EXTERNALID","N","NAME","NAME","ARTICLEID","PUBMEDID","PAGE","TABLE","Melting Point {measured}","UNIT {Melting Point}","Melting Point {measured, converted}","UNIT {Melting Point}"
"C1CNC2=C(NC1)N=CC=C2","-","EN300-106712","5109","1H,2H,3H,4H,5H-pyrido[2,3-b][1,4]diazepine","-","A55638","25489863","-","-","84.0 - 86.0","?C","85.0","Celsius"
"SC1=NN=C(O1)C1CCCCC1","-","EN300-10672","5111","5-cyclohexyl-1,3,4-oxadiazole-2-thiol","-","A55638","25489863","-","-","81.0 - 83.0","?C","82.0","Celsius"
"CC(C)(C)OC1=NC(CCC(O)=O)=CC=C1","-","EN300-106749","5114","3-[6-(tert-butoxy)pyridin-2-yl]propanoic acid","-","A55638","25489863","-","-","82.0 - 84.0","?C","83.0","Celsius"
"CN1N=C(C=O)C=C1C1=CC=CS1","-","EN300-106754","5116","1-methyl-5-(thiophen-2-yl)-1H-pyrazole-3-carbaldehyde","-","A55638","25489863","-","-","76.0 - 78.0","?C","77.0","Celsius"
"CCC1=NC(CCl)=NC(O)=C1","-","EN300-106756","5117","2-(chloromethyl)-6-ethylpyrimidin-4-ol","-","A55638","25489863","-","-","125.0 - 127.0","?C","126.0","Celsius"
"CC1=CC=C(C=C1)N1C=C(C=O)C(=N1)C(C)(C)C","-","EN300-106757","5118","3-tert-butyl-1-(4-methylphenyl)-1H-pyrazole-4-carbaldehyde","-","A55638","25489863","-","-","79.0 - 81.0","?C","80.0","Celsius"
"CC1=CC=C(C=C1)N1C=C(C(O)=O)C(=N1)C(C)(C)C","-","EN300-106758","5119","3-tert-butyl-1-(4-methylphenyl)-1H-pyrazole-4-carboxylic acid","-","A55638","25489863","-","-","218.0 - 220.0","?C","219.0","Celsius"
"CC(C)(C)C1=NN(C=C1C=O)C1=CC=CC=C1","-","EN300-106759","5120","3-tert-butyl-1-phenyl-1H-pyrazole-4-carbaldehyde","-","A55638","25489863","-","-","57.0 - 59.0","?C","58.0","Celsius"
"CC(C)(C)C1=NN(C=C1C(O)=O)C1=CC=CC=C1","-","EN300-106760","5121","3-tert-butyl-1-phenyl-1H-pyrazole-4-carboxylic acid","-","A55638","25489863","-","-","212.0 - 214.0","?C","213.0","Celsius"
"ClC1=C(OCCBr)C=CC(C=O)=C1","-","EN300-106761","5122","4-(2-bromoethoxy)-3-chlorobenzaldehyde","-","A55638","25489863","-","-","61.0 - 63.0","?C","62.0","Celsius"
"CC1=C2N=CC(C)=C(N)N2N=C1","-","EN300-106770","5124","3,6-dimethylpyrazolo[1,5-a]pyrimidin-7-amine","-","A55638","25489863","-","-","239.0 - 241.0","?C","240.0","Celsius"
"CC1=NN(C(C)=C1N)C1=C(F)C=CC=C1","-","EN300-106771","5125","1-(2-fluorophenyl)-3,5-dimethyl-1H-pyrazol-4-amine","-","A55638","25489863","-","-","59.0 - 61.0","?C","60.0","Celsius"
"COC1=CC(N)=C(C=C1)C#N","-","EN300-106785","5128","2-amino-4-methoxybenzonitrile","-","A55638","25489863","-","-","91.0 - 93.0","?C","92.0","Celsius"
"CN1C(C(CCC1=O)C(O)=O)C1=CC(Cl)=CC=C1","-","EN300-106793","5130","2-(3-chlorophenyl)-1-methyl-6-oxopiperidine-3-carboxylic acid","-","A55638","25489863","-","-","182.0 - 184.0","?C","183.0","Celsius"
"CCC(=O)C1=CC=C(C=C1)N(C)C","-","EN300-106797","5131","1-[4-(dimethylamino)phenyl]propan-1-one","-","A55638","25489863","-","-","104.0 - 106.0","?C","105.0","Celsius"
"CC1=C(C(O)=O)C(=O)OC2=C1C=CC(F)=C2","-","EN300-106803","5134","7-fluoro-4-methyl-2-oxo-2H-chromene-3-carboxylic acid","-","A55638","25489863","-","-","169.0 - 171.0","?C","170.0","Celsius"
"CNC1=NC=C(S1)C(=O)OC","-","EN300-106807","5135","methyl 2-(methylamino)-1,3-thiazole-5-carboxylate","-","A55638","25489863","-","-","115.0 - 117.0","?C","116.0","Celsius"
"CC1=C(C=CC(N)=C1)C(=O)OC(C)(C)C","-","EN300-106809","5136","tert-butyl 4-amino-2-methylbenzoate","-","A55638","25489863","-","-","69.0 - 71.0","?C","70.0","Celsius"
"FC1=C(C=C(CBr)C=C1)C#N","-","EN300-106813","5137","5-(bromomethyl)-2-fluorobenzonitrile","-","A55638","25489863","-","-","44.0 - 46.0","?C","45.0","Celsius"
"OC(=O)CCNS(=O)(=O)C1=CC(Br)=CC=C1","-","EN300-10686","5138","3-{[(3-bromophenyl)sulfonyl]amino}propanoic acid","-","A55638","25489863","-","-","146.0 - 148.0","?C","147.0","Celsius"
"COC1=C(OC(C)(C)C)C=CC(CN)=C1","-","EN300-106861","5139","[4-(tert-butoxy)-3-methoxyphenyl]methanamine","-","A55638","25489863","-","-","52.0 - 54.0","?C","53.0","Celsius"
"CCCCNC1=C(N)C=C(C=C1)S(=O)(=O)N1CCCC1","-","EN300-10687","5140","N-[2-amino-4-(pyrrolidin-1-ylsulfonyl)phenyl]-N-butylamine","-","A55638","25489863","-","-","208.0 - 210.0","?C","209.0","Celsius"
"NS(=O)(=O)C1=CC(Cl)=C(Br)S1","-","EN300-106870","5141","5-bromo-4-chlorothiophene-2-sulfonamide","-","A55638","25489863","-","-","147.0 - 149.0","?C","148.0","Celsius"
"OC1=CN=C(I)C=C1","-","EN300-106879","5142","6-iodopyridin-3-ol","-","A55638","25489863","-","-","185.0 - 187.0","?C","186.0","Celsius"
"CC1=CC(C(=O)CCl)=C(C)N1C1=CC=C(C=C1)S(N)(=O)=O","-","EN300-10688","5143","4-[3-(chloroacetyl)-2,5-dimethyl-1H-pyrrol-1-yl]benzenesulfonamide","-","A55638","25489863","-","-","241.0 - 243.0","?C","242.0","Celsius"
"CN(C)C1=C(C=CC(F)=C1)C(C)=O","-","EN300-106880","5144","1-[2-(dimethylamino)-4-fluorophenyl]ethan-1-one","-","A55638","25489863","-","-","57.0 - 59.0","?C","58.0","Celsius"
"CC1=C(N)C=C(S1)C(N)=O","-","EN300-106881","5145","4-amino-5-methylthiophene-2-carboxamide","-","A55638","25489863","-","-","179.0 - 181.0","?C","180.0","Celsius"
"OC(=O)C1C2C1C1CCC2C1","-","EN300-106882","5146","tricyclo[3.2.1.0^{2,4}]octane-3-carboxylic acid","-","A55638","25489863","-","-","96.0 - 98.0","?C","97.0","Celsius"
"COC1=CC(=CC=C1)C(=O)C1=CNC2=C1C=CC=N2","-","EN300-106888","5147","3-[(3-methoxyphenyl)carbonyl]-1H-pyrrolo[2,3-b]pyridine","-","A55638","25489863","-","-","139.0 - 141.0","?C","140.0","Celsius"
"IC1=CC=C(OCC2=CC=NC=C2)C=C1","-","EN300-106889","5148","4-(4-iodophenoxymethyl)pyridine","-","A55638","25489863","-","-","152.0 - 154.0","?C","153.0","Celsius"
"CC1=NN=C(CCl)O1","3914-42-9","EN300-10689","5149","2-(chloromethyl)-5-methyl-1,3,4-oxadiazole","-","A55638","25489863","-","-","32.0 - 40.0","?C","36.0","Celsius"
"IC1=CC=C(OCC2=NC=CC=C2)C=C1","-","EN300-106893","5150","2-(4-iodophenoxymethyl)pyridine","-","A55638","25489863","-","-","74.0 - 76.0","?C","75.0","Celsius"
"CC1=NC(=CC(Cl)=N1)N1C=CN=C1","-","EN300-106902","5155","4-chloro-6-(1H-imidazol-1-yl)-2-methylpyrimidine","-","A55638","25489863","-","-","114.0 - 116.0","?C","115.0","Celsius"
"ON=C1CCN(CC2=CC=CC=C2)CC1","-","EN300-106904","5156","N-(1-benzylpiperidin-4-ylidene)hydroxylamine","-","A55638","25489863","-","-","126.0 - 128.0","?C","127.0","Celsius"
"CC1=CC=CC2=NC(CSC3=C(C=CC=C3)C(O)=O)=CC(=O)N12","-","EN300-106905","5157","2-[({6-methyl-4-oxo-4H-pyrido[1,2-a]pyrimidin-2-yl}methyl)sulfanyl]benzoic acid","-","A55638","25489863","-","-","211.0 - 213.0","?C","212.0","Celsius"
"OC(=O)C1=C(NS(=O)(=O)C2=CC=C(F)C=C2)C=C2C=CC=CC2=C1","-","EN300-106906","5158","3-[(4-fluorobenzene)sulfonamido]naphthalene-2-carboxylic acid","-","A55638","25489863","-","-","203.0 - 205.0","?C","204.0","Celsius"
"CN(C)C(N)=S","6972-05-0","EN300-10693","5160","N,N-DIMETHYLTHIOUREA","-","A55638","25489863","-","-","144.0 - 146.0","?C","145.0","Celsius"
"OC(=O)C1=CNC2=C1C=C(F)C=C2","-","EN300-106949","5162","5-fluoro-1H-indole-3-carboxylic acid","-","A55638","25489863","-","-","225.0 - 227.0","?C","226.0","Celsius"
"OC(=O)C1=CC=C(C=C1)C1=NN=NN1","34114-12-0","EN300-10695","5163","4-(1H-tetrazol-5-yl)benzoic acid","-","A55638","25489863","-","-","282.0 - 284.0","?C","283.0","Celsius"
"OC(=O)C1=CN(CC2=CC(F)=CC=C2)N=N1","-","EN300-106975","5164","1-[(3-fluorophenyl)methyl]-1H-1,2,3-triazole-4-carboxylic acid","-","A55638","25489863","-","-","189.0 - 191.0","?C","190.0","Celsius"
"NC1=C(OCC#N)C=C(F)C=C1","-","EN300-106976","5165","2-(2-amino-5-fluorophenoxy)acetonitrile","-","A55638","25489863","-","-","59.0 - 61.0","?C","60.0","Celsius"
"CN(C)C1=CC(OC2=C(N)C=C(C)C=C2)=CC=C1","-","EN300-106978","5166","2-[3-(dimethylamino)phenoxy]-5-methylaniline","-","A55638","25489863","-","-","64.0 - 66.0","?C","65.0","Celsius"
"SC1=NNC(=O)N1CC=C","-","EN300-106979","5167","4-(prop-2-en-1-yl)-3-sulfanyl-4,5-dihydro-1H-1,2,4-triazol-5-one","-","A55638","25489863","-","-","135.0 - 137.0","?C","136.0","Celsius"
"CC(C)CC1=C(SC(N)=N1)C(O)=O","-","EN300-106985","5168","2-amino-4-(2-methylpropyl)-1,3-thiazole-5-carboxylic acid","-","A55638","25489863","-","-","149.0 - 151.0","?C","150.0","Celsius"
"IC1CCS(=O)(=O)CC1","-","EN300-106986","5169","4-iodo-1$l^{6}-thiane-1,1-dione","-","A55638","25489863","-","-","124.0 - 126.0","?C","125.0","Celsius"
"CN1N=NC2=C1C=CC(CCl)=C2","-","EN300-106989","5171","5-(chloromethyl)-1-methyl-1H-1,2,3-benzotriazole","-","A55638","25489863","-","-","83.0 - 85.0","?C","84.0","Celsius"
"CCC1=CC=C(C=C1)N(C(C)=O)C1=NC(CCl)=CS1","-","EN300-10699","5172","N-[4-(chloromethyl)-1,3-thiazol-2-yl]-N-(4-ethylphenyl)acetamide","-","A55638","25489863","-","-","195.0 - 197.0","?C","196.0","Celsius"
"IC1=CC=C(OCC2=CN=CC=C2)C=C1","-","EN300-106996","5174","3-(4-iodophenoxymethyl)pyridine","-","A55638","25489863","-","-","72.0 - 74.0","?C","73.0","Celsius"
"COC1=CC2=C(OC=N2)C=C1","-","EN300-106998","5175","5-methoxy-1,3-benzoxazole","-","A55638","25489863","-","-","75.0 - 77.0","?C","76.0","Celsius"
"OC(=O)C1(CC1)C1=C(Cl)C=CC=C1Cl","-","EN300-106999","5176","1-(2,6-dichlorophenyl)cyclopropane-1-carboxylic acid","-","A55638","25489863","-","-","216.0 - 218.0","?C","217.0","Celsius"
"CC(=O)N(C1=NC(C=CC(O)=O)=CS1)C1=C(F)C=CC=C1","-","EN300-10700","5177","(2Z)-3-{2-[acetyl(2-fluorophenyl)amino]-1,3-thiazol-4-yl}acrylic acid","-","A55638","25489863","-","-","195.0 - 197.0","?C","196.0","Celsius"
"OC(=O)C1=CC2=C(C=C1)C(=O)N(CCC1=CC=CC=C1)C(S)=N2","-","EN300-10701","5178","2-mercapto-4-oxo-3-(2-phenylethyl)-3,4-dihydroquinazoline-7-carboxylic acid","-","A55638","25489863","-","-","110.0 - 112.0","?C","111.0","Celsius"
"NC1=C(Br)N=CC(Br)=C1","-","EN300-107027","5179","2,5-dibromopyridin-3-amine","-","A55638","25489863","-","-","137.0 - 139.0","?C","138.0","Celsius"
"COC1=C(C=CC(=C1)S(Cl)(=O)=O)[N+]([O-])=O","-","EN300-107043","5180","3-methoxy-4-nitrobenzene-1-sulfonyl chloride","-","A55638","25489863","-","-","75.0 - 77.0","?C","76.0","Celsius"
"NC1=C(Cl)C(=O)NN=C1","-","EN300-107044","5181","5-amino-4-chloro-2,3-dihydropyridazin-3-one","-","A55638","25489863","-","-","299.0 - 301.0","?C","300.0","Celsius"
"NS(=O)(=O)C1=NC=CS1","-","EN300-107045","5182","1,3-thiazole-2-sulfonamide","-","A55638","25489863","-","-","119.0 - 121.0","?C","120.0","Celsius"
"COC(=O)C1CCCC2=C1C=NN2","-","EN300-107046","5183","methyl 4,5,6,7-tetrahydro-1H-indazole-4-carboxylate","-","A55638","25489863","-","-","84.0 - 86.0","?C","85.0","Celsius"
"CC1=CC(=O)NC=C1C(O)=O","-","EN300-107047","5184","4-methyl-6-oxo-1,6-dihydropyridine-3-carboxylic acid","-","A55638","25489863","-","-","306.0 - 308.0","?C","307.0","Celsius"
"OCC1(CC(O)=O)CC1","-","EN300-107048","5185","2-[1-(hydroxymethyl)cyclopropyl]acetic acid","-","A55638","25489863","-","-","68.0 - 70.0","?C","69.0","Celsius"
"COC1=C(C=CC(=C1)S(N)(=O)=O)[N+]([O-])=O","-","EN300-107050","5186","3-methoxy-4-nitrobenzene-1-sulfonamide","-","A55638","25489863","-","-","149.0 - 151.0","?C","150.0","Celsius"
"[O-][N+](=O)C1=C(C#N)C(=CC=C1)S(Cl)(=O)=O","-","EN300-107052","5187","2-cyano-3-nitrobenzene-1-sulfonyl chloride","-","A55638","25489863","-","-","89.0 - 91.0","?C","90.0","Celsius"
"COC1=NC(Cl)=C(Cl)C=N1","-","EN300-107053","5188","4,5-dichloro-2-methoxypyrimidine","-","A55638","25489863","-","-","43.0 - 45.0","?C","44.0","Celsius"
"OC(=O)C1=C(Cl)C2=C(C=CC=C2)N=C1Cl","-","EN300-107054","5189","2,4-dichloroquinoline-3-carboxylic acid","-","A55638","25489863","-","-","167.0 - 169.0","?C","168.0","Celsius"
"CS(=O)(=O)CC1=C(F)C=C(N)C=C1","-","EN300-107059","5191","3-fluoro-4-(methanesulfonylmethyl)aniline","-","A55638","25489863","-","-","152.0 - 154.0","?C","153.0","Celsius"
"COC1=C(OC)C=C(C(C)=O)C(F)=C1","-","EN300-107061","5192","1-(2-fluoro-4,5-dimethoxyphenyl)ethan-1-one","-","A55638","25489863","-","-","92.0 - 94.0","?C","93.0","Celsius"
"CCOC(=O)C1=C(N)N(CCC#N)N=C1","-","EN300-107062","5193","ethyl 5-amino-1-(2-cyanoethyl)-1H-pyrazole-4-carboxylate","-","A55638","25489863","-","-","109.0 - 111.0","?C","110.0","Celsius"
"CC1=CC(C(O)=O)=C(Br)S1","-","EN300-107064","5194","2-bromo-5-methylthiophene-3-carboxylic acid","-","A55638","25489863","-","-","181.0 - 183.0","?C","182.0","Celsius"
"CC1=C(N)C=CC(NC(=O)OC(C)(C)C)=C1","-","EN300-107067","5196","tert-butyl N-(4-amino-3-methylphenyl)carbamate","-","A55638","25489863","-","-","103.0 - 105.0","?C","104.0","Celsius"
"CC1=CN(N=C1)C1=C(F)C=C(C=C1)S(N)(=O)=O","-","EN300-107077","5197","3-fluoro-4-(4-methyl-1H-pyrazol-1-yl)benzene-1-sulfonamide","-","A55638","25489863","-","-","189.0 - 191.0","?C","190.0","Celsius"
"CC1CCCN(CC2=CSC(N)=N2)C1","-","EN300-10708","5198","4-[(3-methylpiperidin-1-yl)methyl]-1,3-thiazol-2-amine","-","A55638","25489863","-","-","136.0 - 138.0","?C","137.0","Celsius"
"OC(=O)C1=CN2C(C=C1)=NN=C2C(F)F","-","EN300-107088","5200","3-(difluoromethyl)-[1,2,4]triazolo[4,3-a]pyridine-6-carboxylic acid","-","A55638","25489863","-","-","278.0 - 280.0","?C","279.0","Celsius"
"COC(=O)C1=C(O)C=NC=C1","-","EN300-107092","5201","methyl 3-hydroxypyridine-4-carboxylate","-","A55638","25489863","-","-","149.0 - 151.0","?C","150.0","Celsius"
"CC(=O)C1=C(C)OC(N)=C1C#N","108129-35-7","EN300-10711","5202","4-acetyl-2-amino-5-methyl-3-furonitrile","-","A55638","25489863","-","-","241.0 - 243.0","?C","242.0","Celsius"
"NNC1=CC(=NC2=NC=NN12)C(F)(F)F","-","EN300-107128","5204","7-hydrazinyl-5-(trifluoromethyl)-[1,2,4]triazolo[1,5-a]pyrimidine","-","A55638","25489863","-","-","230.0 - 232.0","?C","231.0","Celsius"
"NC1=CC(=NN1)C1=C(F)C(F)=CC=C1","-","EN300-107129","5205","3-(2,3-difluorophenyl)-1H-pyrazol-5-amine","-","A55638","25489863","-","-","117.0 - 119.0","?C","118.0","Celsius"
"ClC1=NC2=C(S1)C=C(C=C2)S(Cl)(=O)=O","-","EN300-107130","5207","2-chloro-1,3-benzothiazole-6-sulfonyl chloride","-","A55638","25489863","-","-","98.0 - 100.0","?C","99.0","Celsius"
"OC1CCCCC1N1C=CC(=N1)[N+]([O-])=O","-","EN300-107137","5209","2-(3-nitro-1H-pyrazol-1-yl)cyclohexan-1-ol","-","A55638","25489863","-","-","94.0 - 96.0","?C","95.0","Celsius"
"CC(C)(C)OC(=O)N1CCC(O)(CC1)C1=C(CO)C=CC=C1","-","EN300-107138","5210","tert-butyl 4-hydroxy-4-[2-(hydroxymethyl)phenyl]piperidine-1-carboxylate","-","A55638","25489863","-","-","106.0 - 108.0","?C","107.0","Celsius"
"CCOC1=C(C=CC(O)=O)C=C2OC(C)CC2=C1","-","EN300-10714","5211","(2E)-3-(5-ethoxy-2-methyl-2,3-dihydro-1-benzofuran-6-yl)acrylic acid","-","A55638","25489863","-","-","169.0 - 171.0","?C","170.0","Celsius"
"CC(C)(C)OC(=O)N1CCN2C(CNC(=O)C2=O)C1","-","EN300-107140","5212","tert-butyl 6,7-dioxo-octahydro-1H-pyrazino[1,2-a]piperazine-2-carboxylate","-","A55638","25489863","-","-","222.0 - 224.0","?C","223.0","Celsius"
"O=C1NC2=C(N1)C=C(C=C2)C#N","-","EN300-107141","5213","2-oxo-2,3-dihydro-1H-1,3-benzodiazole-5-carbonitrile","-","A55638","25489863","-","-","296.0 - 298.0","?C","297.0","Celsius"
"O=C1NN=CC2=CNN=C12","-","EN300-107142","5214","2H,6H,7H-pyrazolo[3,4-d]pyridazin-7-one","-","A55638","25489863","-","-","266.0 - 268.0","?C","267.0","Celsius"
"N1C(=NN=C1C1=CC=CC=C1)C1=CC=CC=C1","-","EN300-107143","5215","3,5-Diphenyl-4H-1,2,4-triazole","-","A55638","25489863","-","-","189.0 - 191.0","?C","190.0","Celsius"
"CNC1=NC=C(S1)C(O)=O","-","EN300-107144","5216","2-(methylamino)-1,3-thiazole-5-carboxylic acid","-","A55638","25489863","-","-","159.0 - 161.0","?C","160.0","Celsius"
"OC(=O)CN1C(=O)C=NC2=C1C=CC=C2","63642-41-1","EN300-10715","5218","(2-oxoquinoxalin-1(2H)-yl)acetic acid","-","A55638","25489863","-","-","195.0 - 199.0","?C","197.0","Celsius"
"BrC1=C(N=CC=N1)C#N","-","EN300-107155","5221","3-bromopyrazine-2-carbonitrile","-","A55638","25489863","-","-","44.0 - 46.0","?C","45.0","Celsius"
"NNC(=O)CN1C(=O)COC2=C1C=CC=C2","-","EN300-10716","5224","2-(3-oxo-2,3-dihydro-4H-1,4-benzoxazin-4-yl)acetohydrazide","-","A55638","25489863","-","-","152.0 - 154.0","?C","153.0","Celsius"
"O=S1(=O)CCNCN1","-","EN300-107175","5226","1$l^{6},2,4-thiadiazinane-1,1-dione","-","A55638","25489863","-","-","143.0 - 145.0","?C","144.0","Celsius"
"CC(=O)N1CCCC2=C1C=CC(=C2)C(O)=O","-","EN300-107178","5228","1-acetyl-1,2,3,4-tetrahydroquinoline-6-carboxylic acid","-","A55638","25489863","-","-","184.0 - 186.0","?C","185.0","Celsius"
"N#CCN1CCN(CC2=CC=CC=C2)CC1","92042-93-8","EN300-10718","5229","(4-benzylpiperazin-1-yl)acetonitrile","-","A55638","25489863","-","-","49.0 - 51.0","?C","50.0","Celsius"
"OC(=O)CCNS(=O)(=O)C1=C(Cl)C=CC=C1","-","EN300-10723","5230","3-{[(2-chlorophenyl)sulfonyl]amino}propanoic acid","-","A55638","25489863","-","-","128.0 - 130.0","?C","129.0","Celsius"
"NNC1=C(N=C(O1)C1=CC=CC=C1)C(N)=O","-","EN300-107231","5231","5-hydrazinyl-2-phenyl-1,3-oxazole-4-carboxamide","-","A55638","25489863","-","-","173.0 - 175.0","?C","174.0","Celsius"
"[O-][N+](=O)C1=CC=C(C=C1)N1CCN(CC1)C(=O)CCl","16264-11-2","EN300-10724","5232","1-(chloroacetyl)-4-(4-nitrophenyl)piperazine","-","A55638","25489863","-","-","129.0 - 131.0","?C","130.0","Celsius"
"NC1=C(Cl)C=NN=C1","-","EN300-107247","5233","5-chloropyridazin-4-amine","-","A55638","25489863","-","-","79.0 - 81.0","?C","80.0","Celsius"
"CC1=CC(C)=C(C(C)=C1)S(=O)(=O)NCCC(O)=O","-","EN300-10725","5235","3-[(mesitylsulfonyl)amino]propanoic acid","-","A55638","25489863","-","-","118.0 - 120.0","?C","119.0","Celsius"
"COCC1=C(OC)C=C(C=C1)C(O)=O","-","EN300-107256","5239","3-methoxy-4-(methoxymethyl)benzoic acid","-","A55638","25489863","-","-","164.0 - 166.0","?C","165.0","Celsius"
"CN(C)C1=CC=C(C=C1)C1=CC(=CN=C1)C(O)=O","-","EN300-107257","5240","5-[4-(dimethylamino)phenyl]pyridine-3-carboxylic acid","-","A55638","25489863","-","-","284.0 - 286.0","?C","285.0","Celsius"
"BrC1CCCNC1=O","-","EN300-107267","5241","3-Bromopiperidin-2-one","-","A55638","25489863","-","-","49.0 - 51.0","?C","50.0","Celsius"
"OC(=O)C1=C2C=CC=CC2=C(O)C=C1","-","EN300-107268","5242","4-hydroxynaphthalene-1-carboxylic acid","-","A55638","25489863","-","-","184.0 - 186.0","?C","185.0","Celsius"
"COC1=CC=C(CC2CC(=O)N2)C=C1","-","EN300-107273","5244","4-[(4-methoxyphenyl)methyl]azetidin-2-one","-","A55638","25489863","-","-","97.0 - 99.0","?C","98.0","Celsius"
"CCOC(=O)C1=C(OC)C=C(OC)C=C1N","-","EN300-107280","5246","ethyl 2-amino-4,6-dimethoxybenzoate","-","A55638","25489863","-","-","61.0 - 63.0","?C","62.0","Celsius"
"CCCN1N=C(C)C(C(O)=O)=C1C","-","EN300-107281","5247","3,5-dimethyl-1-propyl-1H-pyrazole-4-carboxylic acid","-","A55638","25489863","-","-","113.0 - 115.0","?C","114.0","Celsius"
"COC(=O)C1=CC(=CC=C1)N1CC(=O)NC1=O","-","EN300-107284","5248","methyl 3-(2,4-dioxoimidazolidin-1-yl)benzoate","-","A55638","25489863","-","-","189.0 - 191.0","?C","190.0","Celsius"
"CC1=NC(C)=C(C#N)C(O)=C1","-","EN300-107292","5249","4-hydroxy-2,6-dimethylpyridine-3-carbonitrile","-","A55638","25489863","-","-","301.0 - 303.0","?C","302.0","Celsius"
"[O-][N+](=O)C1=C(C=O)C=CC(Br)=C1","-","EN300-107308","5252","4-bromo-2-nitrobenzaldehyde","-","A55638","25489863","-","-","95.0 - 100.0","?C","97.5","Celsius"
"CCN1C(CCl)=NC2=C1C=CC(=C2)S(=O)(=O)N1CCCCC1","-","EN300-10733","5253","2-(chloromethyl)-1-ethyl-5-(piperidin-1-ylsulfonyl)-1H-benzimidazole","-","A55638","25489863","-","-","234.0 - 236.0","?C","235.0","Celsius"
"OC(=O)C1CSC2(CCC(=O)N12)C1=CC=CC=C1","-","EN300-10734","5254","5-oxo-7a-phenylhexahydropyrrolo[2,1-b][1,3]thiazole-3-carboxylic acid","-","A55638","25489863","-","-","173.0 - 175.0","?C","174.0","Celsius"
"NC1=CC(N)=C(F)C=C1F","-","EN300-107370","5257","4,6-difluorobenzene-1,3-diamine","-","A55638","25489863","-","-","111.0 - 113.0","?C","112.0","Celsius"
"CCOC1=C(Br)C=C(C=C1)S(N)(=O)=O","-","EN300-107371","5258","3-bromo-4-ethoxybenzene-1-sulfonamide","-","A55638","25489863","-","-","139.0 - 141.0","?C","140.0","Celsius"
"COC1=C(C=C(O)C(N)=C1)[N+]([O-])=O","-","EN300-107373","5259","2-amino-4-methoxy-5-nitrophenol","-","A55638","25489863","-","-","149.0 - 151.0","?C","150.0","Celsius"
"CC(C)(C)C1=CN=C(S)S1","-","EN300-107377","5263","5-tert-butyl-1,3-thiazole-2-thiol","-","A55638","25489863","-","-","115.0 - 117.0","?C","116.0","Celsius"
"CC1=C(F)C=C(Cl)C(=C1)C(O)=O","-","EN300-107378","5264","2-chloro-4-fluoro-5-methylbenzoic acid","-","A55638","25489863","-","-","149.0 - 151.0","?C","150.0","Celsius"