"SMILES","CASRN","EXTERNALID","N","NAME","NAME","ARTICLEID","PUBMEDID","PAGE","TABLE","Melting Point {measured}","UNIT {Melting Point}","Melting Point {measured, converted}","UNIT {Melting Point}"
"CCCCCCC1=CC=C(C=C1)C(=O)CCl","81539-57-3","EN300-02045","798","2-Chloro-1-(4-hexyl-phenyl)-ethanone","-","A55638","25489863","-","-","37.0 - 39.0","?C","38.0","Celsius"
"CC(=O)C1=CC(CCl)=C(O)C=C1","24085-05-0","EN300-02046","799","1-(3-Chloromethyl-4-hydroxy-phenyl)-ethanone","-","A55638","25489863","-","-","169.0 - 171.0","?C","170.0","Celsius"
"ClCC1=NC2=C(C(=CS2)C2=CC=CC=C2)C(=O)N1","89567-07-7","EN300-02047","800","2-Chloromethyl-5-phenyl-3H-thieno[2,3-d]pyrimidin-4-one","-","A55638","25489863","-","-","227.0 - 229.0","?C","228.0","Celsius"
"CCOC(=O)C1=C(NC(=O)CCl)SC(CC)=C1","-","EN300-02048","801","2-(2-Chloro-acetylamino)-5-ethyl-thiophene-3-carboxylic acid ethyl ester","-","A55638","25489863","-","-","74.0 - 76.0","?C","75.0","Celsius"
"CC1=C(C)C=C(C=C1)C(=O)CBr","2633-50-3","EN300-02053","802","2-Bromo-1-(3,4-dimethyl-phenyl)-ethanone","-","A55638","25489863","-","-","63.0 - 65.0","?C","64.0","Celsius"
"CN(C)S(=O)(=O)C1=CC(=C(Cl)C=C1)[N+]([O-])=O","137-47-3","EN300-02055","803","4-Chloro-N,N-dimethyl-3-nitro-benzenesulfonamide","-","A55638","25489863","-","-","104.0 - 106.0","?C","105.0","Celsius"
"[O-][N+](=O)C1=C(Cl)C=CC(=C1)S(=O)(=O)NC1=CC=CC=C1","137-49-5","EN300-02056","804","4-Chloro-3-nitro-N-phenyl-benzenesulfonamide","-","A55638","25489863","-","-","87.0 - 89.0","?C","88.0","Celsius"
"CC1=C(C=C(C=C1)C(=O)CBr)[N+]([O-])=O","22019-50-7","EN300-02057","805","2-Bromo-1-(4-methyl-3-nitro-phenyl)-ethanone","-","A55638","25489863","-","-","45.0 - 47.0","?C","46.0","Celsius"
"CC(C)(C)NC(=O)CCl","15678-99-6","EN300-02059","807","N-tert-Butyl-2-chloro-acetamide","-","A55638","25489863","-","-","75.0 - 77.0","?C","76.0","Celsius"
"NC(=O)NC(=O)CCl","4791-21-3","EN300-02061","808","(2-Chloro-acetyl)-urea","-","A55638","25489863","-","-","181.0 - 183.0","?C","182.0","Celsius"
"CCOC(=O)C1=C(C)NC(C(=O)CCl)=C1C","950-86-7","EN300-02063","809","5-(2-Chloro-acetyl)-2,4-dimethyl-1H-pyrrole-3-carboxylic acid ethyl ester","-","A55638","25489863","-","-","188.0 - 190.0","?C","189.0","Celsius"
"CC1=CC=C(C=C1)S(=O)(=O)C(C#N)C1=C(Cl)N=C2C=CC=CC2=N1","121512-59-2","EN300-02064","810","(3-Chloro-quinoxalin-2-yl)-(toluene-4-sulfonyl)-acetonitrile","-","A55638","25489863","-","-","105.0 - 107.0","?C","106.0","Celsius"
"CN(C(=O)CCl)C1(CCCCC1=O)C1=C(Cl)C=CC=C1","-","EN300-02068","811","2-Chloro-N-[1-(2-chloro-phenyl)-2-oxo-cyclohexyl]-N-methyl-acetamide","-","A55638","25489863","-","-","110.0 - 112.0","?C","111.0","Celsius"
"CC1=CC(C)=C(C(=O)CCl)C(C)=C1","50690-12-5","EN300-02071","812","2-Chloro-1-(2,4,6-trimethyl-phenyl)-ethanone","-","A55638","25489863","-","-","68.0 - 70.0","?C","69.0","Celsius"
"CC1=CC(C)=C(C(=O)CCl)C(C)=C1C(=O)CCl","-","EN300-02072","813","2-Chloro-1-[3-(2-chloro-acetyl)-2,4,6-trimethyl-phenyl]-ethanone","-","A55638","25489863","-","-","136.0 - 138.0","?C","137.0","Celsius"
"ClC(C(=O)NC1=NC(=CS1)C1=CC(Cl)=C(Cl)C=C1)C1=CC=CC=C1","-","EN300-02078","814","2-Chloro-N-[4-(3,4-dichloro-phenyl)-thiazol-2-yl]-2-phenyl-acetamide","-","A55638","25489863","-","-","128.0 - 130.0","?C","129.0","Celsius"
"CC(=O)C1=C(C)NC(C(=O)CCl)=C1C","-","EN300-02080","815","1-(4-Acetyl-3,5-dimethyl-1H-pyrrol-2-yl)-2-chloro-ethanone","-","A55638","25489863","-","-","170.0 - 180.0","?C","175.0","Celsius"
"COC(=O)C1=C(C)C(C(=O)OC)=C(S1)S(Cl)(=O)=O","-","EN300-02082","816","5-Chlorosulfonyl-3-methyl-thiophene-2,4-dicarboxylic acid dimethyl ester","-","A55638","25489863","-","-","88.0 - 92.0","?C","90.0","Celsius"
"O=C1C2=CC=CC3=C2C(=NN3)C2=C1C=CC=C2","129-56-6","EN300-02083","817","2H-Dibenzo[cd,g]indazol-6-one","-","A55638","25489863","-","-","236.0 - 238.0","?C","237.0","Celsius"
"NC1=C(N)C=C(C=C1)S(N)(=O)=O","2360-20-5","EN300-02084","818","3,4-Diamino-benzenesulfonamide","-","A55638","25489863","-","-","145.0 - 154.0","?C","150.0","Celsius"
"CCCCNC1=C(N)C=C(C=C1)S(N)(=O)=O","1565-51-1","EN300-02086","820","3-Amino-4-butylamino-benzenesulfonamide","-","A55638","25489863","-","-","130.0 - 132.0","?C","131.0","Celsius"
"NC1=C(NS(=O)(=O)C2=CC=CS2)C=CC=C1","-","EN300-02087","821","Thiophene-2-sulfonic acid (2-amino-phenyl)-amide","-","A55638","25489863","-","-","188.0 - 190.0","?C","189.0","Celsius"
"NC1=C(N)C=C(C=C1)S(=O)(=O)N1CCOCC1","-","EN300-02088","822","4-(Morpholine-4-sulfonyl)-benzene-1,2-diamine","-","A55638","25489863","-","-","169.0 - 171.0","?C","170.0","Celsius"
"NC1=C(N)C=C(C=C1)S(=O)(=O)NC1=C(Cl)C=CC=C1","-","EN300-02089","823","3,4-Diamino-N-(2-chloro-phenyl)-benzenesulfonamide","-","A55638","25489863","-","-","203.0 - 205.0","?C","204.0","Celsius"
"NC1=CC=C(C=C1)C1=NC2=C(N1)C=CC=C2","2963-77-1","EN300-02095","824","4-(1H-Benzoimidazol-2-yl)-phenylamine","-","A55638","25489863","-","-","218.0 - 222.0","?C","220.0","Celsius"
"NC1=CC=C(C=C1)C1(CCCCC1)C1=CC=C(N)C=C1","3282-99-3","EN300-02100","826","4-[1-(4-aminophenyl)cyclohexyl]phenylamine","-","A55638","25489863","-","-","110.0 - 112.0","?C","111.0","Celsius"
"COC1=C(NC2=CC=C(N)C=C2)C=CC=C1","5840-11-9","EN300-02103","827","N-(2-Methoxy-phenyl)-benzene-1,4-diamine","-","A55638","25489863","-","-","73.0 - 75.0","?C","74.0","Celsius"
"CCOC(=O)C1=C(N)SC=C1C1=C(Cl)C=CC=C1","325724-66-1","EN300-02107","831","2-Amino-4-(2-chloro-phenyl)-thiophene-3-carboxylic acid ethyl ester","-","A55638","25489863","-","-","65.0 - 73.0","?C","69.0","Celsius"
"CN(C)S(=O)(=O)C1=CC(N)=CC=C1","6274-18-6","EN300-02110","834","3-Amino-N,N-dimethyl-benzenesulfonamide","-","A55638","25489863","-","-","125.0 - 127.0","?C","126.0","Celsius"
"NC1=CC(=CC=C1)S(=O)(=O)N1CCCC1","91619-38-4","EN300-02111","835","3-(Pyrrolidine-1-sulfonyl)-phenylamine","-","A55638","25489863","-","-","156.0 - 158.0","?C","157.0","Celsius"
"CCN(CC)S(=O)(=O)C1=CC(N)=CC=C1","10372-41-5","EN300-02112","836","3-Amino-N,N-diethyl-benzenesulfonamide","-","A55638","25489863","-","-","84.0 - 86.0","?C","85.0","Celsius"
"NC1=CC(=CC=C1)S(=O)(=O)NCC1=CC=CO1","-","EN300-02115","839","3-Amino-N-furan-2-ylmethyl-benzenesulfonamide","-","A55638","25489863","-","-","83.0 - 85.0","?C","84.0","Celsius"
"NC1=CC(=CC=C1)S(=O)(=O)NC1=C(F)C=CC=C1","-","EN300-02116","840","3-Amino-N-(2-fluoro-phenyl)-benzenesulfonamide","-","A55638","25489863","-","-","195.0 - 197.0","?C","196.0","Celsius"
"COC1=C(NS(=O)(=O)C2=CC(N)=CC=C2)C=CC=C1","-","EN300-02117","841","3-Amino-N-(2-methoxy-phenyl)-benzenesulfonamide","-","A55638","25489863","-","-","35.0 - 37.0","?C","36.0","Celsius"
"COC1=CC=C(NS(=O)(=O)C2=CC(N)=CC=C2)C=C1","-","EN300-02118","842","3-Amino-N-(4-methoxy-phenyl)-benzenesulfonamide","-","A55638","25489863","-","-","109.0 - 111.0","?C","110.0","Celsius"
"NC1=CC(=CC=C1)S(=O)(=O)NC1=CC(Cl)=CC=C1","438017-93-7","EN300-02119","843","3-Amino-N-(3-chloro-phenyl)-benzenesulfonamide","-","A55638","25489863","-","-","107.0 - 109.0","?C","108.0","Celsius"
"NC1=CC(=CC=C1)S(=O)(=O)NC1=CC=C(Cl)C=C1","-","EN300-02120","844","3-Amino-N-(4-chloro-phenyl)-benzenesulfonamide","-","A55638","25489863","-","-","127.0 - 129.0","?C","128.0","Celsius"
"NC1=CC(=CC=C1)S(=O)(=O)NC1=C(Cl)C=CC=C1","-","EN300-02121","845","3-Amino-N-(2-chloro-phenyl)-benzenesulfonamide","-","A55638","25489863","-","-","110.0 - 112.0","?C","111.0","Celsius"
"NC1=CC(=CC=C1)S(=O)(=O)NC1=C(C=CC=C1)C(O)=O","55990-13-1","EN300-02122","846","2-(3-Amino-benzenesulfonylamino)-benzoic acid","-","A55638","25489863","-","-","198.0 - 200.0","?C","199.0","Celsius"
"CC1=C(C=C(N)C=C1)S(=O)(=O)NC1=CC(Cl)=CC=C1","-","EN300-02124","847","5-Amino-N-(3-chloro-phenyl)-2-methyl-benzenesulfonamide","-","A55638","25489863","-","-","158.0 - 160.0","?C","159.0","Celsius"
"NC1=CC(=CC=C1)S(=O)(=O)NC1=CC(=CC=C1)C(F)(F)F","-","EN300-02126","848","3-Amino-N-(3-trifluoromethyl-phenyl)-benzenesulfonamide","-","A55638","25489863","-","-","98.0 - 100.0","?C","99.0","Celsius"
"CN(C)S(=O)(=O)C1=CC(N)=C(Cl)C=C1","100313-81-3","EN300-02128","849","3-Amino-4-chloro-N,N-dimethyl-benzenesulfonamide","-","A55638","25489863","-","-","119.0 - 121.0","?C","120.0","Celsius"
"CCN(CC)S(=O)(=O)C1=CC(N)=C(Cl)C=C1","-","EN300-02130","850","3-Amino-4-chloro-N,N-diethyl-benzenesulfonamide","-","A55638","25489863","-","-","84.0 - 88.0","?C","86.0","Celsius"
"NC1=C(Cl)C=CC(=C1)S(=O)(=O)N1CCCCC1","-","EN300-02131","851","2-Chloro-5-(piperidine-1-sulfonyl)-phenylamine","-","A55638","25489863","-","-","129.0 - 131.0","?C","130.0","Celsius"
"NC1=C(Cl)C=CC(=C1)S(=O)(=O)N1CCOCC1","99187-74-3","EN300-02132","852","2-Chloro-5-(morpholine-4-sulfonyl)-phenylamine","-","A55638","25489863","-","-","177.0 - 179.0","?C","178.0","Celsius"
"NC1=C(Cl)C=CC(=C1)S(=O)(=O)NC1=C(Cl)C=CC=C1","-","EN300-02138","853","3-Amino-4-chloro-N-(2-chloro-phenyl)-benzenesulfonamide","-","A55638","25489863","-","-","89.0 - 93.0","?C","91.0","Celsius"
"CN(C)S(=O)(=O)C1=CC(N)=C(C)C=C1","6331-68-6","EN300-02142","854","3-Amino-4,N,N-trimethyl-benzenesulfonamide","-","A55638","25489863","-","-","172.0 - 174.0","?C","173.0","Celsius"
"CN(C)S(=O)(=O)C1=C(C)C=CC(N)=C1","-","EN300-02143","855","5-Amino-2,N,N-trimethyl-benzenesulfonamide","-","A55638","25489863","-","-","80.0 - 84.0","?C","82.0","Celsius"
"CN(C)S(=O)(=O)C1=C(Cl)C=CC(N)=C1","10475-06-6","EN300-02144","856","5-Amino-2-chloro-N,N-dimethyl-benzenesulfonamide","-","A55638","25489863","-","-","125.0 - 129.0","?C","127.0","Celsius"
"CCN(CC)S(=O)(=O)C1=CC(N)=C(C)C=C1","17354-60-8","EN300-02145","857","3-Amino-N,N-diethyl-4-methyl-benzenesulfonamide","-","A55638","25489863","-","-","108.0 - 112.0","?C","110.0","Celsius"
"CCN(CC)S(=O)(=O)C1=C(C)C=CC(N)=C1","-","EN300-02146","858","5-Amino-N,N-diethyl-2-methyl-benzenesulfonamide","-","A55638","25489863","-","-","166.0 - 169.0","?C","168.0","Celsius"
"CC1=C(C=C(N)C=C1)S(=O)(=O)N1CCCCC1","-","EN300-02147","859","4-Methyl-3-(piperidine-1-sulfonyl)-phenylamine","-","A55638","25489863","-","-","105.0 - 107.0","?C","106.0","Celsius"
"CC1=C(N)C=C(C=C1)S(=O)(=O)N1CCOCC1","21447-56-3","EN300-02148","860","2-Methyl-5-(morpholine-4-sulfonyl)-phenylamine","-","A55638","25489863","-","-","127.0 - 135.0","?C","131.0","Celsius"
"CC1=C(C=C(N)C=C1)S(=O)(=O)N1CCOCC1","-","EN300-02149","861","4-Methyl-3-(morpholine-4-sulfonyl)-phenylamine","-","A55638","25489863","-","-","186.0 - 188.0","?C","187.0","Celsius"
"CC1=C(C=C(N)C=C1)S(=O)(=O)N1CCCCCC1","-","EN300-02150","862","3-(Azepane-1-sulfonyl)-4-methyl-phenylamine","-","A55638","25489863","-","-","44.0 - 46.0","?C","45.0","Celsius"
"NC1=CC(=C(Cl)C=C1)S(=O)(=O)N1CCOCC1","-","EN300-02151","863","4-Chloro-3-(morpholine-4-sulfonyl)-phenylamine","-","A55638","25489863","-","-","157.0 - 159.0","?C","158.0","Celsius"
"CC1=CC(C)=C(NS(=O)(=O)C2=CC(N)=C(C)C=C2)C=C1","-","EN300-02153","864","3-Amino-N-(2,4-dimethyl-phenyl)-4-methyl-benzenesulfonamide","-","A55638","25489863","-","-","111.0 - 113.0","?C","112.0","Celsius"
"COC1=CC=C(NS(=O)(=O)C2=CC(N)=C(C)C=C2)C=C1","-","EN300-02154","865","3-Amino-N-(4-methoxy-phenyl)-4-methyl-benzenesulfonamide","-","A55638","25489863","-","-","127.0 - 129.0","?C","128.0","Celsius"
"CC1=C(C=C(N)C=C1)S(=O)(=O)NC1=CC=C(Cl)C=C1","-","EN300-02156","866","5-Amino-N-(4-chloro-phenyl)-2-methyl-benzenesulfonamide","-","A55638","25489863","-","-","144.0 - 146.0","?C","145.0","Celsius"
"NC1=CC(=C(Cl)C=C1)S(=O)(=O)NC1=CC=C(Cl)C=C1","-","EN300-02157","867","5-Amino-2-chloro-N-(4-chloro-phenyl)-benzenesulfonamide","-","A55638","25489863","-","-","123.0 - 125.0","?C","124.0","Celsius"
"CC1=C(N)C=C(C=C1)S(=O)(=O)NC1=CC(Cl)=CC=C1","-","EN300-02158","868","3-Amino-N-(3-chloro-phenyl)-4-methyl-benzenesulfonamide","-","A55638","25489863","-","-","110.0 - 112.0","?C","111.0","Celsius"
"CC1=C(N)C=C(C=C1)S(=O)(=O)NC1=CC=C(Cl)C=C1","-","EN300-02159","869","3-Amino-N-(4-chloro-phenyl)-4-methyl-benzenesulfonamide","-","A55638","25489863","-","-","104.0 - 106.0","?C","105.0","Celsius"
"NC1=CC(=C(Cl)C=C1)S(=O)(=O)NC1=CC(Cl)=CC=C1","-","EN300-02162","870","5-Amino-2-chloro-N-(3-chloro-phenyl)-benzenesulfonamide","-","A55638","25489863","-","-","158.0 - 160.0","?C","159.0","Celsius"
"CC1=C(C=C(N)C=C1)S(=O)(=O)NC1=CC=C(SC(F)F)C=C1","-","EN300-02165","871","5-Amino-N-(4-difluoromethylsulfanyl-phenyl)-2-methyl-benzenesulfonamide","-","A55638","25489863","-","-","227.0 - 230.0","?C","228.0","Celsius"
"NC1=C(C=CC(=C1)S(=O)(=O)N1CCOCC1)N1CCOCC1","-","EN300-02166","872","5-(Morpholine-4-sulfonyl)-2-morpholin-4-yl-phenylamine","-","A55638","25489863","-","-","210.0 - 212.0","?C","211.0","Celsius"
"COC1=CC=C(NS(=O)(=O)C2=CC(N)=C(C=C2)N2CCCC2)C=C1","-","EN300-02167","873","3-Amino-N-(4-methoxy-phenyl)-4-pyrrolidin-1-yl-benzenesulfonamide","-","A55638","25489863","-","-","40.0 - 42.0","?C","41.0","Celsius"
"COC1=CC=C(NS(=O)(=O)C2=CC(N)=C(C=C2)N2CCCCC2)C=C1","-","EN300-02169","874","3-Amino-N-(4-methoxy-phenyl)-4-piperidin-1-yl-benzenesulfonamide","-","A55638","25489863","-","-","111.0 - 113.0","?C","112.0","Celsius"
"COC1=C(NS(=O)(=O)C2=CC(N)=C(C=C2)N2CCOCC2)C=CC=C1","-","EN300-02170","875","3-Amino-N-(2-methoxy-phenyl)-4-morpholin-4-yl-benzenesulfonamide","-","A55638","25489863","-","-","150.0 - 152.0","?C","151.0","Celsius"
"NC1=C(C=CC(=C1)S(=O)(=O)NC1=CC=C(Cl)C=C1)N1CCOCC1","-","EN300-02175","876","3-Amino-N-(4-chloro-phenyl)-4-morpholin-4-yl-benzenesulfonamide","-","A55638","25489863","-","-","55.0 - 58.0","?C","56.5","Celsius"
"COC1=C(NS(=O)(=O)C2=C(C=CC(N)=C2)N2CCCC2)C=CC=C1","-","EN300-02177","877","5-Amino-N-(2-methoxy-phenyl)-2-pyrrolidin-1-yl-benzenesulfonamide","-","A55638","25489863","-","-","159.0 - 161.0","?C","160.0","Celsius"
"COC1=CC=C(NS(=O)(=O)C2=C(C=CC(N)=C2)N2CCCC2)C=C1","-","EN300-02178","878","5-Amino-N-(4-methoxy-phenyl)-2-pyrrolidin-1-yl-benzenesulfonamide","-","A55638","25489863","-","-","178.0 - 182.0","?C","180.0","Celsius"
"CCN(CC)C1=C(C=C(N)C=C1)S(=O)(=O)NC1=CC=C(OC)C=C1","-","EN300-02179","879","5-Amino-2-diethylamino-N-(4-methoxy-phenyl)-benzenesulfonamide","-","A55638","25489863","-","-","107.0 - 109.0","?C","108.0","Celsius"
"COC1=C(NS(=O)(=O)C2=C(C=CC(N)=C2)N2CCCCC2)C=CC=C1","-","EN300-02181","880","5-Amino-N-(2-methoxy-phenyl)-2-piperidin-1-yl-benzenesulfonamide","-","A55638","25489863","-","-","169.0 - 171.0","?C","170.0","Celsius"
"COC1=CC=C(NS(=O)(=O)C2=C(C=CC(N)=C2)N2CCCCC2)C=C1","-","EN300-02182","881","5-Amino-N-(4-methoxy-phenyl)-2-piperidin-1-yl-benzenesulfonamide","-","A55638","25489863","-","-","145.0 - 154.0","?C","150.0","Celsius"
"COC1=CC=C(NS(=O)(=O)C2=C(C=CC(N)=C2)N2CCOCC2)C=C1","-","EN300-02183","882","5-Amino-N-(4-methoxy-phenyl)-2-morpholin-4-yl-benzenesulfonamide","-","A55638","25489863","-","-","232.0 - 234.0","?C","233.0","Celsius"
"COC1=C(NS(=O)(=O)C2=C(C=CC(N)=C2)N2CCOCC2)C=CC=C1","-","EN300-02184","883","5-Amino-N-(2-methoxy-phenyl)-2-morpholin-4-yl-benzenesulfonamide","-","A55638","25489863","-","-","197.0 - 199.0","?C","198.0","Celsius"
"NC1=CC(=C(C=C1)N1CCCCC1)S(=O)(=O)NC1=C(Cl)C=CC=C1","-","EN300-02185","884","5-Amino-N-(2-chloro-phenyl)-2-piperidin-1-yl-benzenesulfonamide","-","A55638","25489863","-","-","146.0 - 148.0","?C","147.0","Celsius"
"NC1=CC(=C(C=C1)N1CCOCC1)S(=O)(=O)NC1=C(Cl)C=CC=C1","-","EN300-02186","885","5-Amino-N-(2-chloro-phenyl)-2-morpholin-4-yl-benzenesulfonamide","-","A55638","25489863","-","-","219.0 - 221.0","?C","220.0","Celsius"
"NC1=CC(=C(C=C1)N1CCCC1)S(=O)(=O)NC1=CC(=CC=C1)C(F)(F)F","-","EN300-02187","886","5-Amino-2-pyrrolidin-1-yl-N-(3-trifluoromethyl-phenyl)-benzenesulfonamide","-","A55638","25489863","-","-","151.0 - 153.0","?C","152.0","Celsius"
"CCN(CC)S(=O)(=O)C1=CC(N)=C(O)C=C1","6837-92-9","EN300-02188","887","3-Amino-N,N-diethyl-4-hydroxy-benzenesulfonamide","-","A55638","25489863","-","-","74.0 - 76.0","?C","75.0","Celsius"
"NC1=C(O)C=CC(=C1)S(=O)(=O)N1CCOCC1","-","EN300-02190","888","2-Amino-4-(morpholine-4-sulfonyl)-phenol","-","A55638","25489863","-","-","199.0 - 201.0","?C","200.0","Celsius"
"COC1=C(NS(=O)(=O)C2=CC(N)=C(O)C=C2)C=CC=C1","-","EN300-02191","889","3-Amino-4-hydroxy-N-(2-methoxy-phenyl)-benzenesulfonamide","-","A55638","25489863","-","-","167.0 - 169.0","?C","168.0","Celsius"
"COC1=CC=C(NS(=O)(=O)C2=CC(N)=C(O)C=C2)C=C1","-","EN300-02192","890","3-Amino-4-hydroxy-N-(4-methoxy-phenyl)-benzenesulfonamide","-","A55638","25489863","-","-","213.0 - 215.0","?C","214.0","Celsius"
"NC1=C(O)C=CC(=C1)S(=O)(=O)NC1=C(Cl)C=CC=C1","-","EN300-02195","891","3-Amino-N-(2-chloro-phenyl)-4-hydroxy-benzenesulfonamide","-","A55638","25489863","-","-","195.0 - 197.0","?C","196.0","Celsius"
"NC1=CC=C(C=C1)S(=O)(=O)NC1=CC(Cl)=CC=C1","19837-81-1","EN300-02196","892","4-Amino-N-(3-chloro-phenyl)-benzenesulfonamide","-","A55638","25489863","-","-","132.0 - 134.0","?C","133.0","Celsius"
"NC1=CC=C(C=C1)S(=O)(=O)N1CCCC1","88327-91-7","EN300-02197","893","4-(Pyrrolidine-1-sulfonyl)-phenylamine","-","A55638","25489863","-","-","164.0 - 166.0","?C","165.0","Celsius"
"CCN(CC)S(=O)(=O)C1=CC=C(N)C=C1","1709-39-3","EN300-02198","894","4-Amino-N,N-diethyl-benzenesulfonamide","-","A55638","25489863","-","-","99.0 - 101.0","?C","100.0","Celsius"
"NC1=CC=C(C=C1)S(=O)(=O)NCC1=CC=CO1","5626-92-6","EN300-02201","897","4-Amino-N-furan-2-ylmethyl-benzenesulfonamide","-","A55638","25489863","-","-","180.0 - 182.0","?C","181.0","Celsius"
"NC1=CC=C(C=C1)S(=O)(=O)NC1=CC=C(Cl)C=C1","16803-92-2","EN300-02204","898","4-Amino-N-(4-chloro-phenyl)-benzenesulfonamide","-","A55638","25489863","-","-","180.0 - 182.0","?C","181.0","Celsius"
"CCOC1=CC=C(NS(=O)(=O)C2=CC=C(N)C=C2)C=C1","19837-75-3","EN300-02205","899","4-Amino-N-(4-ethoxy-phenyl)-benzenesulfonamide","-","A55638","25489863","-","-","145.0 - 147.0","?C","146.0","Celsius"
"CC1=NN(CCC#N)C(N)=C1","61255-82-1","EN300-02207","900","3-(5-Amino-3-methyl-pyrazol-1-yl)-propionitrile","-","A55638","25489863","-","-","104.0 - 106.0","?C","105.0","Celsius"
"CC1=NN(C(N)=C1)C1=NC(C)=CC(C)=N1","-","EN300-02209","901","2-(4,6-Dimethyl-pyrimidin-2-yl)-5-methyl-2H-pyrazol-3-ylamine","-","A55638","25489863","-","-","173.0 - 175.0","?C","174.0","Celsius"
"CC1=NN(C(N)=C1)C1=CC(=CC=C1)C(F)(F)F","345-07-3","EN300-02210","902","5-Methyl-2-(3-trifluoromethyl-phenyl)-2H-pyrazol-3-ylamine","-","A55638","25489863","-","-","88.0 - 92.0","?C","90.0","Celsius"
"CC1=NN(CCO)C(N)=C1","51546-08-8","EN300-02211","903","2-(5-Amino-3-methyl-pyrazol-1-yl)-ethanol","-","A55638","25489863","-","-","48.0 - 52.0","?C","50.0","Celsius"
"NC1=NC(=CS1)C1=CC=C(N)C=C1","3673-53-8","EN300-02218","904","4-(4-Amino-phenyl)-thiazol-2-ylamine","-","A55638","25489863","-","-","178.0 - 180.0","?C","179.0","Celsius"
"NC1=NC(=CS1)C1=C(Cl)C=CC(Cl)=C1","68301-45-1","EN300-02219","905","4-(2,5-Dichloro-phenyl)-thiazol-2-ylamine","-","A55638","25489863","-","-","161.0 - 165.0","?C","163.0","Celsius"
"COC(=O)C1=CC=C(C=C1)C1=CSC(N)=N1","206555-77-3","EN300-02222","906","4-(2-Amino-thiazol-4-yl)-benzoic acid methyl ester","-","A55638","25489863","-","-","239.0 - 241.0","?C","240.0","Celsius"
"NC1=NC(=CS1)C1=CC=C(OC2=CC=CC=C2)C=C1","105512-82-1","EN300-02223","907","4-(4-Phenoxy-phenyl)-thiazol-2-ylamine","-","A55638","25489863","-","-","195.0 - 197.0","?C","196.0","Celsius"
"CC(=O)C1=C(N=C(N)S1)C1=CC=CC=C1","-","EN300-02229","910","1-(2-Amino-4-phenyl-thiazol-5-yl)-ethanone","-","A55638","25489863","-","-","145.0 - 147.0","?C","146.0","Celsius"
"NC1=NC(=CS1)C1=CC(N)=CC=C1","103740-34-7","EN300-02230","911","4-(3-Amino-phenyl)-thiazol-2-ylamine","-","A55638","25489863","-","-","174.0 - 176.0","?C","175.0","Celsius"
"CC(C)(C)C1=CC=C(C=C1)C1=CSC(N)=N1","81529-61-5","EN300-02235","913","4-(4-tert-Butyl-phenyl)-thiazol-2-ylamine","-","A55638","25489863","-","-","127.0 - 129.0","?C","128.0","Celsius"
"NC1=NC(=CS1)C1=CC=C(F)C=C1","77815-14-6","EN300-02236","914","4-(4-Fluoro-phenyl)-thiazol-2-ylamine","-","A55638","25489863","-","-","111.0 - 113.0","?C","112.0","Celsius"
"CCC1=CC=C(C=C1)C1=CSC(N)=N1","85112-35-2","EN300-02243","915","4-(4-Ethyl-phenyl)-thiazol-2-ylamine","-","A55638","25489863","-","-","120.0 - 122.0","?C","121.0","Celsius"