"SMILES","CASRN","EXTERNALID","N","NAME","NAME","ARTICLEID","PUBMEDID","PAGE","TABLE","Melting Point {measured}","UNIT {Melting Point}","Melting Point {measured, converted}","UNIT {Melting Point}"
"OC(=O)C1=C(C=CC(=C1)S(=O)(=O)N1CCCCC1)N1CCOCC1","-","EN300-06194","2178","2-Morpholin-4-yl-5-(piperidine-1-sulfonyl)-benzoic acid","-","A55638","25489863","-","-","173.0 - 175.0","?C","174.0","Celsius"
"COC1=CC(OC)=C(C=C1)C(=O)CCl","4783-90-8","EN300-06197","2179","2-Chloro-1-(2,4-dimethoxy-phenyl)-ethanone","-","A55638","25489863","-","-","48.0 - 50.0","?C","49.0","Celsius"
"COC1=CC=C(OCC2=CC(C(O)=O)=C(C)O2)C=C1","-","EN300-06200","2180","5-(4-Methoxy-phenoxymethyl)-2-methyl-furan-3-carboxylic acid","-","A55638","25489863","-","-","123.0 - 133.0","?C","128.0","Celsius"
"CC(C)C1=C(C)C=C2OC=C(CC(O)=O)C2=C1","-","EN300-06202","2182","(5-Isopropyl-6-methyl-benzofuran-3-yl)-acetic acid","-","A55638","25489863","-","-","141.0 - 143.0","?C","142.0","Celsius"
"CC1=CC2=C(C=C1)C(CC(O)=O)=CO2","142917-39-3","EN300-06203","2183","(6-Methyl-benzofuran-3-yl)-acetic acid","-","A55638","25489863","-","-","140.0 - 142.0","?C","141.0","Celsius"
"CCC1=CC2=C(C=C1)C(CC(O)=O)=CO2","-","EN300-06204","2184","(6-Ethyl-benzofuran-3-yl)-acetic acid","-","A55638","25489863","-","-","82.0 - 84.0","?C","83.0","Celsius"
"OC(=O)CC1=COC2=C1C1=C(C=CC=C1)C=C2","92262-75-4","EN300-06205","2185","Naphtho[2,1-b]furan-1-yl-acetic acid","-","A55638","25489863","-","-","166.0 - 168.0","?C","167.0","Celsius"
"OC(=O)CC1=COC2=C1C=C1CCCC1=C2","-","EN300-06206","2186","(6,7-Dihydro-5H-1-oxa-s-indacen-3-yl)-acetic acid","-","A55638","25489863","-","-","151.0 - 153.0","?C","152.0","Celsius"
"OC(=O)COC1=C(Br)C=C(Cl)C=C1","77228-66-1","EN300-06211","2188","(2-Bromo-4-chloro-phenoxy)-acetic acid","-","A55638","25489863","-","-","123.0 - 125.0","?C","124.0","Celsius"
"OC(=O)COC1=C(Br)C=C(F)C=C1","399-40-6","EN300-06212","2189","(2-Bromo-4-fluoro-phenoxy)-acetic acid","-","A55638","25489863","-","-","142.0 - 144.0","?C","143.0","Celsius"
"CCOC(=O)C1=C(N)SC=C1C1CCCCC1","-","EN300-06224","2190","2-Amino-4-cyclohexyl-thiophene-3-carboxylic acid ethyl ester","-","A55638","25489863","-","-","109.0 - 111.0","?C","110.0","Celsius"
"OC(=O)C1CCN(CC1)C(=O)CSC1=NN=C(O1)C1=CC=CC=C1","-","EN300-06230","2193","1-[2-(5-Phenyl-[1,3,4]oxadiazol-2-ylsulfanyl)-acetyl]-piperidine-4-carboxylic acid","-","A55638","25489863","-","-","104.0 - 106.0","?C","105.0","Celsius"
"OC(=O)C1=CC2=C(C=C1)C(=O)N1CCCC1=N2","55762-24-8","EN300-06233","2194","9-Oxo-1,2,3,9-tetrahydro-pyrrolo[2,1-b]quinazoline-6-carboxylic acid","-","A55638","25489863","-","-","354.0 - 356.0","?C","355.0","Celsius"
"COC1=C(OCC(O)=O)C=CC(=C1)C(C)=O","68461-48-3","EN300-06242","2195","(4-Acetyl-2-methoxy-phenoxy)-acetic acid","-","A55638","25489863","-","-","165.0 - 167.0","?C","166.0","Celsius"
"OC(=O)CSC1=CC=C(Br)C=C1","3406-76-6","EN300-06247","2196","(4-Bromo-phenylsulfanyl)-acetic acid","-","A55638","25489863","-","-","117.0 - 119.0","?C","118.0","Celsius"
"SC1=NC2=C(C=CC=C2)N1CCC#N","-","EN300-06254","2197","3-(2-Mercapto-benzoimidazol-1-yl)-propionitrile","-","A55638","25489863","-","-","154.0 - 158.0","?C","156.0","Celsius"
"CCCCOC1=C(OCC)C=C(C=O)C=C1","93567-90-9","EN300-06257","2198","4-Butoxy-3-ethoxy-benzaldehyde","-","A55638","25489863","-","-","38.0 - 40.0","?C","39.0","Celsius"
"ClC1=NC=C(C=C1)S(=O)(=O)N1CCC(CC2=CC=CC=C2)CC1","-","EN300-06263","2199","5-(4-Benzyl-piperidine-1-sulfonyl)-2-chloro-pyridine","-","A55638","25489863","-","-","153.0 - 157.0","?C","155.0","Celsius"
"ClC1=NC=C(C=C1)S(=O)(=O)N1CCOCC1","52480-33-8","EN300-06264","2200","4-(6-Chloro-pyridine-3-sulfonyl)-morpholine","-","A55638","25489863","-","-","143.0 - 145.0","?C","144.0","Celsius"
"ClC1=NC=C(C=C1)S(=O)(=O)N1CCCCC1","64614-52-4","EN300-06265","2201","2-Chloro-5-(piperidine-1-sulfonyl)-pyridine","-","A55638","25489863","-","-","130.0 - 132.0","?C","131.0","Celsius"
"ClC1=NC=C(C=C1)S(=O)(=O)N1CCCC1","64614-51-3","EN300-06266","2202","2-Chloro-5-(pyrrolidine-1-sulfonyl)-pyridine","-","A55638","25489863","-","-","149.0 - 151.0","?C","150.0","Celsius"
"CN1CCN(CC1)S(=O)(=O)C1=CN=C(Cl)C=C1","64614-53-5","EN300-06267","2203","1-(6-Chloro-pyridine-3-sulfonyl)-4-methyl-piperazine","-","A55638","25489863","-","-","129.0 - 131.0","?C","130.0","Celsius"
"ClC1=NC=C(C=C1)S(=O)(=O)N(CC1=CC=CC=C1)CC1=CC=CC=C1","-","EN300-06268","2204","6-Chloro-pyridine-3-sulfonic acid dibenzylamide","-","A55638","25489863","-","-","106.0 - 108.0","?C","107.0","Celsius"
"CCN(CC)S(=O)(=O)C1=CN=C(Cl)C=C1","54864-87-8","EN300-06269","2205","6-Chloro-pyridine-3-sulfonic acid diethylamide","-","A55638","25489863","-","-","82.0 - 84.0","?C","83.0","Celsius"
"CCN(C1=CC=CC=C1)S(=O)(=O)C1=CN=C(Cl)C=C1","-","EN300-06271","2206","6-Chloro-pyridine-3-sulfonic acid ethyl-phenyl-amide","-","A55638","25489863","-","-","81.0 - 83.0","?C","82.0","Celsius"
"CC(C)N(C(C)C)S(=O)(=O)C1=CN=C(Cl)C=C1","-","EN300-06272","2207","6-Chloro-pyridine-3-sulfonic acid diisopropylamide","-","A55638","25489863","-","-","229.0 - 230.0","?C","230.0","Celsius"
"OC1CNC2=C3C=CC=CC3=CC=C2C1","5423-67-6","EN300-06275","2208","1,2,3,4-Tetrahydro-benzo[h]quinolin-3-ol","-","A55638","25489863","-","-","144.0 - 146.0","?C","145.0","Celsius"
"CCOC(=O)CC(=O)CN1C(=O)C2=C(C=CC=C2)S1(=O)=O","-","EN300-06276","2209","3-Oxo-4-(1,1,3-trioxo-1,3-dihydro-1lambda*6*-benzo[d]isothiazol-2-yl)-butyric acid ethyl ester","-","A55638","25489863","-","-","104.0 - 106.0","?C","105.0","Celsius"
"NC1=C(C=CC=C1)C(=O)NC1=CC2=C(OCO2)C=C1","-","EN300-06279","2210","2-Amino-N-benzo[1,3]dioxol-5-yl-benzamide","-","A55638","25489863","-","-","85.0 - 87.0","?C","86.0","Celsius"
"COC1=C(OCC(O)=O)C=CC(C)=C1","6270-23-1","EN300-06280","2211","(2-Methoxy-4-methyl-phenoxy)-acetic acid","-","A55638","25489863","-","-","118.0 - 120.0","?C","119.0","Celsius"
"OC(=O)C1=CC=C(NS(=O)(=O)C=CC2=CC=CC=C2)C=C1","-","EN300-06281","2212","4-(2-Phenyl-ethenesulfonylamino)-benzoic acid","-","A55638","25489863","-","-","254.0 - 256.0","?C","255.0","Celsius"
"OC(=O)COC1=C(F)C=C(Br)C=C1","451-90-1","EN300-06283","2213","(4-Bromo-2-fluoro-phenoxy)-acetic acid","-","A55638","25489863","-","-","106.0 - 108.0","?C","107.0","Celsius"
"NN1C(=O)NC2(CCCCC2)C1=O","16252-63-4","EN300-06284","2214","3-Amino-1,3-diaza-spiro[4.5]decane-2,4-dione","-","A55638","25489863","-","-","164.0 - 166.0","?C","165.0","Celsius"
"OC(=O)C1=C(COC2=CC=CC=C2)C2=C(O1)C=CC=C2","28664-92-8","EN300-06289","2215","3-Phenoxymethyl-benzofuran-2-carboxylic acid","-","A55638","25489863","-","-","163.0 - 165.0","?C","164.0","Celsius"
"OC(=O)C1=C(CSC2CCCCC2)C2=C(O1)C=CC=C2","-","EN300-06291","2216","3-Cyclohexylsulfanylmethyl-benzofuran-2-carboxylic acid","-","A55638","25489863","-","-","158.0 - 160.0","?C","159.0","Celsius"
"OC(=O)C1=C(CSC2=CC=C(Cl)C=C2)C2=C(O1)C=CC=C2","-","EN300-06292","2217","3-(4-Chloro-phenylsulfanylmethyl)-benzofuran-2-carboxylic acid","-","A55638","25489863","-","-","158.0 - 160.0","?C","159.0","Celsius"
"OC1=CC2=C(NC3=C(C=CC=C3)C2=O)C=C1","7466-73-1","EN300-06295","2218","2-Hydroxy-10H-acridin-9-one","-","A55638","25489863","-","-","319.0 - 321.0","?C","320.0","Celsius"
"CC1=CC(NS(=O)(=O)C2=CC(N)=C(C)C=C2)=CC=C1","-","EN300-06296","2219","3-Amino-4-methyl-N-m-tolyl-benzenesulfonamide","-","A55638","25489863","-","-","95.0 - 97.0","?C","96.0","Celsius"
"NC1=C(C=CC=C1)S(=O)(=O)NC1=CC=CC=C1","27332-20-3","EN300-06301","2220","2-Amino-N-phenyl-benzenesulfonamide","-","A55638","25489863","-","-","118.0 - 120.0","?C","119.0","Celsius"
"CCCCOC1=C(OCC)C=C(C=CC(O)=O)C=C1","-","EN300-06302","2221","3-(4-Butoxy-3-ethoxy-phenyl)-acrylic acid","-","A55638","25489863","-","-","109.0 - 111.0","?C","110.0","Celsius"
"[O-][N+](=O)C1=C(OC2=CC=C(C=O)C=C2)C=CC(Cl)=C1","-","EN300-06305","2222","4-(4-Chloro-2-nitro-phenoxy)-benzaldehyde","-","A55638","25489863","-","-","69.0 - 71.0","?C","70.0","Celsius"
"NC1=CC=C(C=C1)S(=O)(=O)NC1=CC=CC=C1","127-77-5","EN300-06306","2223","4-Amino-N-phenyl-benzenesulfonamide","-","A55638","25489863","-","-","176.0 - 178.0","?C","177.0","Celsius"
"CN(C)C1=CC=C(C=C1)N1C(=O)CSC1=S","34557-44-3","EN300-06307","2224","3-(4-Dimethylamino-phenyl)-2-thioxo-thiazolidin-4-one","-","A55638","25489863","-","-","138.0 - 140.0","?C","139.0","Celsius"
"CC(NC(=O)C1=C(N)C=CC=C1)C1=CC=CC=C1","85592-80-9","EN300-06308","2225","2-Amino-N-(1-phenyl-ethyl)-benzamide","-","A55638","25489863","-","-","127.0 - 129.0","?C","128.0","Celsius"
"CC1=C(C)C=C(CC(O)=O)C=C1","17283-16-8","EN300-06309","2226","(3,4-Dimethyl-phenyl)-acetic acid","-","A55638","25489863","-","-","96.0 - 98.0","?C","97.0","Celsius"
"OC(=O)COC1=C2N=CC=CC2=CC=C1","5326-89-6","EN300-06310","2227","(Quinolin-8-yloxy)-acetic acid","-","A55638","25489863","-","-","125.0 - 127.0","?C","126.0","Celsius"
"OC(=O)C=CC1=NC2=C(S1)C=CC=C2","123530-67-6","EN300-06317","2228","3-Benzothiazol-2-yl-acrylic acid","-","A55638","25489863","-","-","222.0 - 224.0","?C","223.0","Celsius"
"OC(=O)C=CC1=NC2=C(C=CC=C2)C=C1","81124-50-7","EN300-06318","2229","3-Quinolin-2-yl-acrylic acid","-","A55638","25489863","-","-","169.0 - 171.0","?C","170.0","Celsius"
"ClCC1=NC2=C(SC=C2)C(=O)N1","-","EN300-06319","2230","2-Chloromethyl-3H-thieno[3,2-d]pyrimidin-4-one","-","A55638","25489863","-","-","190.0 - 193.0","?C","192.0","Celsius"
"OC(=O)C1=CC=C(C=C2NC(=S)N(C2=O)C2=CC=C(F)C=C2)C=C1","-","EN300-06320","2231","4-[1-(4-Fluoro-phenyl)-5-oxo-2-thioxo-imidazolidin-4-ylidenemethyl]-benzoic acid","-","A55638","25489863","-","-","349.0 - 351.0","?C","350.0","Celsius"
"CC1=CC(NC(N)=S)=C(C)C=C1","16738-19-5","EN300-06326","2232","(2,5-Dimethyl-phenyl)-thiourea","-","A55638","25489863","-","-","140.0 - 142.0","?C","141.0","Celsius"
"COC1=C(OCC(O)=O)C=CC(C=CC)=C1","7510-46-5","EN300-06342","2234","(2-Methoxy-4-propenyl-phenoxy)-acetic acid","-","A55638","25489863","-","-","117.0 - 119.0","?C","118.0","Celsius"
"ON=CC1=CC=C(C=C1)N1CCOCC1","-","EN300-06345","2235","4-Morpholin-4-yl-benzaldehyde oxime","-","A55638","25489863","-","-","186.0 - 188.0","?C","187.0","Celsius"
"CC(C)CNC(=O)NC(=O)CCl","-","EN300-06348","2236","1-(2-Chloro-acetyl)-3-isobutyl-urea","-","A55638","25489863","-","-","105.0 - 107.0","?C","106.0","Celsius"
"OCC1=CC(Br)=CC(CO)=C1O","6296-63-5","EN300-06353","2237","4-Bromo-2,6-bis-hydroxymethyl-phenol","-","A55638","25489863","-","-","164.0 - 166.0","?C","165.0","Celsius"
"OC1=C(C=CC=C1)C(=O)C1=CN(C2=NC=CC=C2)C(=O)C(=C1)C#N","-","EN300-06354","2238","5-(2-Hydroxy-benzoyl)-2-oxo-2H-[1,2']bipyridinyl-3-carbonitrile","-","A55638","25489863","-","-","147.0 - 150.0","?C","148.0","Celsius"
"NC1=CC(=NO1)C1=CC=C(C=C1)[N+]([O-])=O","119162-48-0","EN300-06361","2239","3-(4-Nitro-phenyl)-isoxazol-5-ylamine","-","A55638","25489863","-","-","195.0 - 197.0","?C","196.0","Celsius"
"CCOC(=O)C1=C(N)C=C(S1)C1=CC(=CC=C1)[N+]([O-])=O","-","EN300-06363","2240","3-Amino-5-(3-nitro-phenyl)-thiophene-2-carboxylic acid ethyl ester","-","A55638","25489863","-","-","166.0 - 168.0","?C","167.0","Celsius"
"NCC(C1=CNC2=C1C=CC=C2)C1=CC=CC=C1","5027-78-1","EN300-06366","2241","2-(1H-Indol-3-yl)-2-phenyl-ethylamine","-","A55638","25489863","-","-","123.0 - 125.0","?C","124.0","Celsius"
"CC1=C(NC2=NC(CCl)=NC(N)=N2)C=CC=C1","-","EN300-06367","2242","6-Chloromethyl-N-o-tolyl-[1,3,5]triazine-2,4-diamine","-","A55638","25489863","-","-","203.0 - 207.0","?C","205.0","Celsius"
"CCOC1=CC=C(OC2=C(N)C=CC=C2)C=C1","-","EN300-06368","2243","2-(4-Ethoxy-phenoxy)-phenylamine","-","A55638","25489863","-","-","158.0 - 160.0","?C","159.0","Celsius"
"CC1=CC(C(=O)CCl)=C(C)N1C1=CC(=CC=C1)C(F)(F)F","314245-30-2","EN300-06369","2244","2-Chloro-1-[2,5-dimethyl-1-(3-trifluoromethyl-phenyl)-1H-pyrrol-3-yl]-ethanone","-","A55638","25489863","-","-","96.0 - 98.0","?C","97.0","Celsius"
"CC1=CC2=C(N=C(Cl)C=C2C)C(C)=C1","139719-24-7","EN300-06370","2245","2-Chloro-4,6,8-trimethyl-quinoline","-","A55638","25489863","-","-","128.0 - 132.0","?C","130.0","Celsius"
"CC(NC(=O)C1=C(NC(=O)CCl)C=CC=C1)C1=CC=CC=C1","-","EN300-06373","2246","2-(2-Chloro-acetylamino)-N-(1-phenyl-ethyl)-benzamide","-","A55638","25489863","-","-","118.0 - 120.0","?C","119.0","Celsius"
"NC1=C(C=CC=C1)C(=O)NCC1=CC2=C(OCO2)C=C1","-","EN300-06374","2247","2-Amino-N-benzo[1,3]dioxol-5-ylmethyl-benzamide","-","A55638","25489863","-","-","115.0 - 124.0","?C","120.0","Celsius"
"CC(C)CCN1N=C(C(O)=O)C2=C(C=CC=C2)C1=O","-","EN300-06379","2248","3-(3-Methyl-butyl)-4-oxo-3,4-dihydro-phthalazine-1-carboxylic acid","-","A55638","25489863","-","-","133.0 - 135.0","?C","134.0","Celsius"
"COC1=C(OC)C=C(CC2=NN=C(S)N2N)C=C1","-","EN300-06381","2249","4-Amino-5-(3,4-dimethoxy-benzyl)-4H-[1,2,4]triazole-3-thiol","-","A55638","25489863","-","-","177.0 - 179.0","?C","178.0","Celsius"
"COCCN1C(=O)CC(=O)NC1=S","-","EN300-06385","2250","1-(2-Methoxy-ethyl)-2-thioxo-dihydro-pyrimidine-4,6-dione","-","A55638","25489863","-","-","148.0 - 150.0","?C","149.0","Celsius"
"COC1=C(NC2=NC(=CS2)C2=CC=C(C)C=C2)C=CC=C1","-","EN300-06386","2251","(2-Methoxy-phenyl)-(4-p-tolyl-thiazol-2-yl)-amine","-","A55638","25489863","-","-","143.0 - 145.0","?C","144.0","Celsius"
"COC1=C(OC)C=C(C=C1)C1=NN=C(S)N1N","125866-62-8","EN300-06388","2252","4-Amino-5-(3,4-dimethoxy-phenyl)-4H-[1,2,4]triazole-3-thiol","-","A55638","25489863","-","-","204.0 - 208.0","?C","206.0","Celsius"
"COC1=CC(=CC=C1)N1C(CC(=O)NN)=CSC1=NCC1=CC=CO1","-","EN300-06389","2253","[2-(Furan-2-ylmethylimino)-3-(3-methoxy-phenyl)-2,3-dihydro-thiazol-4-yl]-acetic acid hydrazide","-","A55638","25489863","-","-","151.0 - 153.0","?C","152.0","Celsius"
"NN1C(SCC(O)=O)=NN=C1C1CCCCC1","-","EN300-06392","2254","(4-Amino-5-cyclohexyl-4H-[1,2,4]triazol-3-ylsulfanyl)-acetic acid","-","A55638","25489863","-","-","159.0 - 161.0","?C","160.0","Celsius"
"CCC1=CC=C(NC2=NN=C(S)S2)C=C1","-","EN300-06393","2255","5-(4-Ethyl-phenylamino)-[1,3,4]thiadiazole-2-thiol","-","A55638","25489863","-","-","151.0 - 153.0","?C","152.0","Celsius"
"CC1=CC=CC(C)=C1OCC(O)=O","13335-71-2","EN300-06394","2256","(2,6-DIMETHYL-PHENOXY)-ACETIC ACID","-","A55638","25489863","-","-","138.0 - 140.0","?C","139.0","Celsius"
"CCC1=CC2=C(C=C1)N=C(N)S2","21224-16-8","EN300-06395","2257","6-Ethyl-benzothiazol-2-ylamine","-","A55638","25489863","-","-","105.0 - 107.0","?C","106.0","Celsius"
"ClCC1=NC2=C(C(=CS2)C2=CC=CS2)C(=O)N1","-","EN300-06399","2258","2-Chloromethyl-5-thiophen-2-yl-3H-thieno[2,3-d]pyrimidin-4-one","-","A55638","25489863","-","-","219.0 - 221.0","?C","220.0","Celsius"
"CC1=CC=C(C)N1CC1=C(Cl)C=CC=C1","-","EN300-06400","2259","1-(2-Chloro-benzyl)-2,5-dimethyl-1H-pyrrole","-","A55638","25489863","-","-","87.0 - 89.0","?C","88.0","Celsius"
"OC1=CC=C(C=C1)C1=NN=CO1","5378-27-8","EN300-06402","2260","4-[1,3,4]Oxadiazol-2-yl-phenol","-","A55638","25489863","-","-","210.0 - 212.0","?C","211.0","Celsius"
"O=C1CNC2=C(N1)C=C(C=C2)S(=O)(=O)N1CCCCC1","-","EN300-06407","2261","7-(Piperidine-1-sulfonyl)-3,4-dihydro-1H-quinoxalin-2-one","-","A55638","25489863","-","-","144.0 - 146.0","?C","145.0","Celsius"
"COCCNC(N)=O","22033-10-9","EN300-06417","2262","(2-methoxy-ethyl)-urea","-","A55638","25489863","-","-","72.0 - 74.0","?C","73.0","Celsius"
"ClCC(=O)NC1=C(C=CC=C1)C(=O)NC1=CC2=C(OCO2)C=C1","-","EN300-06421","2263","N-Benzo[1,3]dioxol-5-yl-2-(2-chloro-acetylamino)-benzamide","-","A55638","25489863","-","-","169.0 - 171.0","?C","170.0","Celsius"
"CCC1=NC2=C(C=CC=C2)N1CC(=O)NN","-","EN300-06422","2264","(2-Ethyl-benzoimidazol-1-yl)-acetic acid hydrazide","-","A55638","25489863","-","-","211.0 - 213.0","?C","212.0","Celsius"
"CCC(C)C1=CC=C(C=C1)N1C(S)=NC2=C(C=CC(Cl)=C2)C1=O","-","EN300-06425","2265","3-(4-sec-Butyl-phenyl)-7-chloro-2-mercapto-3H-quinazolin-4-one","-","A55638","25489863","-","-","242.0 - 244.0","?C","243.0","Celsius"
"CN(C)S(=O)(=O)C1=CC2=C(OC(NN)=N2)C=C1","-","EN300-06428","2266","2-Hydrazino-benzooxazole-5-sulfonic acid dimethylamide","-","A55638","25489863","-","-","218.0 - 220.0","?C","219.0","Celsius"
"SC1=NN=C(NC2=CC=CC=C2)S1","10253-83-5","EN300-06433","2267","5-Phenylamino-[1,3,4]thiadiazole-2-thiol","-","A55638","25489863","-","-","160.0 - 162.0","?C","161.0","Celsius"
"CCCN1C(N)=CC(=O)N(C)C1=O","53681-48-4","EN300-06434","2268","6-Amino-3-methyl-1-propyl-1H-pyrimidine-2,4-dione","-","A55638","25489863","-","-","166.0 - 168.0","?C","167.0","Celsius"
"COC1=CC=C(NC2=CC=CC=C2)C=C1","1208-86-2","EN300-06439","2269","(4-Methoxy-phenyl)-phenyl-amine","-","A55638","25489863","-","-","104.0 - 106.0","?C","105.0","Celsius"
"OC(=O)C1=C(C=CC(=C1)S(=O)(=O)N1CCCCC1)N1CCCCC1","-","EN300-06443","2271","5-(Piperidine-1-sulfonyl)-2-piperidin-1-yl-benzoic acid","-","A55638","25489863","-","-","143.0 - 145.0","?C","144.0","Celsius"
"COC1=C(C=C(CNC(=O)CCl)C=C1)C(O)=O","-","EN300-06448","2272","5-[(2-Chloro-acetylamino)-methyl]-2-methoxy-benzoic acid","-","A55638","25489863","-","-","133.0 - 135.0","?C","134.0","Celsius"
"CCCNC(=O)NC(=O)CCl","4791-26-8","EN300-06452","2273","1-(2-Chloro-acetyl)-3-propyl-urea","-","A55638","25489863","-","-","119.0 - 121.0","?C","120.0","Celsius"
"ClCC(=O)NN1C(=O)NC2(CCCCC2)C1=O","-","EN300-06453","2274","2-Chloro-N-(2,4-dioxo-1,3-diaza-spiro[4.5]dec-3-yl)-acetamide","-","A55638","25489863","-","-","105.0 - 107.0","?C","106.0","Celsius"
"CC(=O)CC1=CC=C(C=C1)C1=CC=CC=C1","5333-01-7","EN300-06474","2275","1-Biphenyl-4-yl-propan-2-one","-","A55638","25489863","-","-","49.0 - 51.0","?C","50.0","Celsius"
"CC(=O)NCC1=CC=C(O1)C(=O)CCl","-","EN300-06476","2276","N-[5-(2-Chloro-acetyl)-furan-2-ylmethyl]-acetamide","-","A55638","25489863","-","-","125.0 - 127.0","?C","126.0","Celsius"
"CCN(CC)S(=O)(=O)C1=CC2=C(C=C1)N=C(CCl)N2","-","EN300-06477","2277","2-Chloromethyl-3H-benzoimidazole-5-sulfonic acid diethylamide","-","A55638","25489863","-","-","93.0 - 95.0","?C","94.0","Celsius"
"CC1=NC2=C(C=C1)C(Cl)=CC(Cl)=C2OCC(O)=O","-","EN300-06488","2278","(5,7-Dichloro-2-methyl-quinolin-8-yloxy)-acetic acid","-","A55638","25489863","-","-","209.0 - 211.0","?C","210.0","Celsius"
"CC(C)CN1C=NC2=C1C(=O)NC(=O)N2CC(C)C","-","EN300-06491","2279","3,7-Diisobutyl-3,7-dihydro-purine-2,6-dione","-","A55638","25489863","-","-","158.0 - 160.0","?C","159.0","Celsius"
"CCCCN1C2=C(N(CCC)C(CO)=N2)C(=O)NC1=O","-","EN300-06493","2280","3-Butyl-8-hydroxymethyl-7-propyl-3,7-dihydro-purine-2,6-dione","-","A55638","25489863","-","-","134.0 - 136.0","?C","135.0","Celsius"
"OCC1=CC(F)=CC(CO)=C1O","71643-58-8","EN300-06500","2281","4-Fluoro-2,6-bis-hydroxymethyl-phenol","-","A55638","25489863","-","-","119.0 - 121.0","?C","120.0","Celsius"
"OC1=CC(=CC=C1)C(=O)NCC1=CC=CC=C1","15789-02-3","EN300-06502","2282","N-Benzyl-3-hydroxy-benzamide","-","A55638","25489863","-","-","140.0 - 142.0","?C","141.0","Celsius"
"OC(=O)CSC1=NN=C(O1)C1=CC=C(F)C=C1","-","EN300-06505","2283","[5-(4-Fluoro-phenyl)-[1,3,4]oxadiazol-2-ylsulfanyl]-acetic acid","-","A55638","25489863","-","-","140.0 - 142.0","?C","141.0","Celsius"
"CCCC(=O)C1=CC(=CC=C1)[N+]([O-])=O","50766-86-4","EN300-06507","2284","1-(3-Nitro-phenyl)-butan-1-one","-","A55638","25489863","-","-","59.0 - 63.0","?C","61.0","Celsius"
"OC(=O)C=CC1=CC=NC=C1","5337-79-1","EN300-06512","2286","(2e)-3-pyridin-4-ylacrylic acid","-","A55638","25489863","-","-","264.0 - 266.0","?C","265.0","Celsius"
"CC1=NN=NN1C(=CC1=CC=CC=C1)C(O)=O","1738-50-7","EN300-06513","2287","2-(5-Methyl-tetrazol-1-yl)-3-phenyl-acrylic acid","-","A55638","25489863","-","-","201.0 - 203.0","?C","202.0","Celsius"
"COC1=C(OC(F)F)C(C=O)=CC=C1","-","EN300-06514","2288","2-Difluoromethoxy-3-methoxy-benzaldehyde","-","A55638","25489863","-","-","30.0 - 32.0","?C","31.0","Celsius"
"COC1=C(OC(F)F)C(=CC=C1)C(O)=O","-","EN300-06515","2289","2-Difluoromethoxy-3-methoxy-benzoic acid","-","A55638","25489863","-","-","152.0 - 154.0","?C","153.0","Celsius"
"COC1=C(OC(F)F)C=CC(=C1)C(C)=O","-","EN300-06516","2290","1-(4-Difluoromethoxy-3-methoxy-phenyl)-ethanone","-","A55638","25489863","-","-","65.0 - 67.0","?C","66.0","Celsius"