"SMILES","CASRN","EXTERNALID","N","NAME","NAME","ARTICLEID","PUBMEDID","PAGE","TABLE","Melting Point {measured}","UNIT {Melting Point}","Melting Point {measured, converted}","UNIT {Melting Point}"
"COCCOC1=C(C=C(Cl)C=C1)C(O)=O","-","EN300-100054","3508","5-chloro-2-(2-methoxyethoxy)benzoic acid","-","A55638","25489863","-","-","68.0 - 70.0","?C","69.0","Celsius"
"OC1(CCOC2=CC=CC=C2)CC1","-","EN300-100056","3509","1-(2-phenoxyethyl)cyclopropan-1-ol","-","A55638","25489863","-","-","57.0 - 59.0","?C","58.0","Celsius"
"CN(C(=O)CCl)C1(CCCCC1)C#N","-","EN300-10006","3510","2-chloro-N-(1-cyanocyclohexyl)-N-methylacetamide","-","A55638","25489863","-","-","86.0 - 90.0","?C","88.0","Celsius"
"CC(=O)C1=CC2=C(C=C1)C=C(O)C=C2","-","EN300-100065","3511","1-(6-hydroxynaphthalen-2-yl)ethan-1-one","-","A55638","25489863","-","-","170.0 - 172.0","?C","171.0","Celsius"
"COC(C)C1=NC(CC(O)=O)=CS1","-","EN300-100066","3512","2-[2-(1-methoxyethyl)-1,3-thiazol-4-yl]acetic acid","-","A55638","25489863","-","-","154.0 - 156.0","?C","155.0","Celsius"
"COC(C)C1=NC(C)=C(S1)C(O)=O","-","EN300-100067","3513","2-(1-methoxyethyl)-4-methyl-1,3-thiazole-5-carboxylic acid","-","A55638","25489863","-","-","126.0 - 128.0","?C","127.0","Celsius"
"CNC(C1=CC=C(Cl)C=C1)C1=CC=C(Cl)C=C1","-","EN300-100068","3514","[bis(4-chlorophenyl)methyl](methyl)amine","-","A55638","25489863","-","-","49.0 - 51.0","?C","50.0","Celsius"
"COC(=O)C1=NC=CC(=C1)C(O)=O","-","EN300-100069","3515","2-(methoxycarbonyl)pyridine-4-carboxylic acid","-","A55638","25489863","-","-","233.0 - 235.0","?C","234.0","Celsius"
"NCC1=CSC(CNC(=O)C2=CC=CC=C2)=N1","-","EN300-100070","3517","N-{[4-(aminomethyl)-1,3-thiazol-2-yl]methyl}benzamide","-","A55638","25489863","-","-","84.0 - 86.0","?C","85.0","Celsius"
"OCC1=CC(=NC=C1)N1C=CN=C1","-","EN300-100078","3518","[2-(1H-imidazol-1-yl)pyridin-4-yl]methanol","-","A55638","25489863","-","-","155.0 - 157.0","?C","156.0","Celsius"
"CC1=NN(C=C1)C1=NC=CC(CO)=C1","-","EN300-100079","3519","[2-(3-methyl-1H-pyrazol-1-yl)pyridin-4-yl]methanol","-","A55638","25489863","-","-","92.0 - 94.0","?C","93.0","Celsius"
"COC1=C(NC(=O)CNC(=O)CCl)C=C(C)C=C1","-","EN300-10008","3520","2-chloro-N-{2-[(2-methoxy-5-methylphenyl)amino]-2-oxoethyl}acetamide","-","A55638","25489863","-","-","121.0 - 123.0","?C","122.0","Celsius"
"CNC1=C(N=CC=C1)N1CCCC1","-","EN300-100081","3522","N-methyl-2-(pyrrolidin-1-yl)pyridin-3-amine","-","A55638","25489863","-","-","105.0 - 107.0","?C","106.0","Celsius"
"OC1=CC2=C(C=NN2)C=C1","-","EN300-100085","3523","1H-Indazol-6-ol","-","A55638","25489863","-","-","189.0 - 191.0","?C","190.0","Celsius"
"CN1CCNC2=C1N=CC=C2","-","EN300-100086","3524","4-methyl-1H,2H,3H,4H-pyrido[2,3-b]pyrazine","-","A55638","25489863","-","-","89.0 - 91.0","?C","90.0","Celsius"
"COC1=C(C=C(Cl)C(Cl)=C1)C(O)=O","-","EN300-100087","3525","4,5-dichloro-2-methoxybenzoic acid","-","A55638","25489863","-","-","148.0 - 150.0","?C","149.0","Celsius"
"ClCC1=CC=C(C=C1)C1=NC2=C(S1)C(Cl)=CC=C2","-","EN300-100089","3527","7-chloro-2-[4-(chloromethyl)phenyl]-1,3-benzothiazole","-","A55638","25489863","-","-","173.0 - 175.0","?C","174.0","Celsius"
"OCC#CC1=CC=C(Cl)C=C1","-","EN300-100090","3529","3-(4-chlorophenyl)prop-2-yn-1-ol","-","A55638","25489863","-","-","76.0 - 78.0","?C","77.0","Celsius"
"CNC(C1=CC=C(Cl)C=C1)C1=NC=CC=N1","-","EN300-100098","3530","[(4-chlorophenyl)(pyrimidin-2-yl)methyl](methyl)amine","-","A55638","25489863","-","-","67.0 - 69.0","?C","68.0","Celsius"
"CN(C)CC1=CC(N)=C(C)C=C1","-","EN300-100107","3532","5-[(dimethylamino)methyl]-2-methylaniline","-","A55638","25489863","-","-","66.0 - 68.0","?C","67.0","Celsius"
"NC1(CCCC1)C(=O)NCC1CC1","-","EN300-100110","3534","1-amino-N-(cyclopropylmethyl)cyclopentane-1-carboxamide","-","A55638","25489863","-","-","64.0 - 66.0","?C","65.0","Celsius"
"CC(=O)C1=CC2=C(O1)C=C(C)C(C)=C2","-","EN300-100111","3535","1-(5,6-dimethyl-1-benzofuran-2-yl)ethan-1-one","-","A55638","25489863","-","-","89.0 - 91.0","?C","90.0","Celsius"
"NNC1=C2SC(=CC2=NC=N1)C1=CC=C(F)C=C1","-","EN300-10012","3537","6-(4-fluorophenyl)-4-hydrazinothieno[3,2-d]pyrimidine","-","A55638","25489863","-","-","237.0 - 239.0","?C","238.0","Celsius"
"COC(=O)C1=CC(=NC=C1)C#N","-","EN300-100141","3538","methyl 2-cyanopyridine-4-carboxylate","-","A55638","25489863","-","-","109.0 - 111.0","?C","110.0","Celsius"
"NNC(=O)CO","-","EN300-100149","3539","2-hydroxyacetohydrazide","-","A55638","25489863","-","-","90.0 - 92.0","?C","91.0","Celsius"
"O=C1CC2(CCCC2)OC2=C1C=CC=C2","-","EN300-100165","3542","3,4-dihydrospiro[1-benzopyran-2,1'-cyclopentane]-4-one","-","A55638","25489863","-","-","35.0 - 37.0","?C","36.0","Celsius"
"CCC1=CC=C(C=CS(Cl)(=O)=O)C=C1","-","EN300-100167","3543","2-(4-ethylphenyl)ethene-1-sulfonyl chloride","-","A55638","25489863","-","-","66.0 - 68.0","?C","67.0","Celsius"
"CN1CCN(CC1)C1=NC(Cl)=CC=N1","-","EN300-100168","3544","4-chloro-2-(4-methylpiperazin-1-yl)pyrimidine","-","A55638","25489863","-","-","94.0 - 96.0","?C","95.0","Celsius"
"O=C1N(CC2CN(CC3=CC=CC=C3)CCO2)C(=O)C2=C1C=CC=C2","-","EN300-100171","3546","2-[(4-benzylmorpholin-2-yl)methyl]-2,3-dihydro-1H-isoindole-1,3-dione","-","A55638","25489863","-","-","136.0 - 138.0","?C","137.0","Celsius"
"ClC1=CC=C(C=C1)C(=O)C1=NC=CC=N1","-","EN300-100173","3547","2-[(4-chlorophenyl)carbonyl]pyrimidine","-","A55638","25489863","-","-","91.0 - 93.0","?C","92.0","Celsius"
"CC(=O)C1=C(F)C=C(F)C=C1O","-","EN300-100175","3548","1-(2,4-difluoro-6-hydroxyphenyl)ethan-1-one","-","A55638","25489863","-","-","45.0 - 47.0","?C","46.0","Celsius"
"CC(=O)NCC(O)C1=CC=CC=C1","-","EN300-100177","3549","N-(2-hydroxy-2-phenylethyl)acetamide","-","A55638","25489863","-","-","119.0 - 121.0","?C","120.0","Celsius"
"OC(CC(O)=O)C1=CC=C(Cl)C=C1","-","EN300-100179","3550","3-(4-chlorophenyl)-3-hydroxypropanoic acid","-","A55638","25489863","-","-","197.0 - 199.0","?C","198.0","Celsius"
"CC(=O)N1CCC(C1)C(O)=O","-","EN300-100180","3551","1-acetylpyrrolidine-3-carboxylic acid","-","A55638","25489863","-","-","145.0 - 147.0","?C","146.0","Celsius"
"NC(=O)C1=CSC(C=O)=C1","-","EN300-100181","3552","5-formylthiophene-3-carboxamide","-","A55638","25489863","-","-","155.0 - 157.0","?C","156.0","Celsius"
"CC1N(CCNC1=O)C(=O)C1=CC=CS1","-","EN300-100183","3554","3-methyl-4-[(thiophen-2-yl)carbonyl]piperazin-2-one","-","A55638","25489863","-","-","129.0 - 131.0","?C","130.0","Celsius"
"OC1COC2=C1C=CC(O)=C2","-","EN300-100184","3555","2,3-dihydro-1-benzofuran-3,6-diol","-","A55638","25489863","-","-","104.0 - 106.0","?C","105.0","Celsius"
"CC(OC1=C(N)N=CC=C1)C1=CC=CC=C1","-","EN300-100185","3556","3-(1-phenylethoxy)pyridin-2-amine","-","A55638","25489863","-","-","83.0 - 85.0","?C","84.0","Celsius"
"OC(=O)C=CC1=CC=C(Br)S1","50868-68-3","EN300-10021","3562","(2E)-3-(5-bromothien-2-yl)acrylic acid","-","A55638","25489863","-","-","209.0 - 211.0","?C","210.0","Celsius"
"CN(CCO)CCC(O)=O","-","EN300-100237","3563","3-[(2-hydroxyethyl)(methyl)amino]propanoic acid","-","A55638","25489863","-","-","89.0 - 91.0","?C","90.0","Celsius"
"ClCC(=O)NC(=O)NC1=CC(=CC=C1)C#C","-","EN300-100240","3564","3-(2-chloroacetyl)-1-(3-ethynylphenyl)urea","-","A55638","25489863","-","-","185.0 - 187.0","?C","186.0","Celsius"
"NC(=O)C1CC2=C(CN1)N=CN2","-","EN300-100243","3567","1H,4H,5H,6H,7H-imidazo[4,5-c]pyridine-6-carboxamide","-","A55638","25489863","-","-","249.0 - 251.0","?C","250.0","Celsius"
"O=C1COC2=C(N1)C=CC=N2","-","EN300-100244","3568","1H,2H,3H-pyrido[2,3-b][1,4]oxazin-2-one","-","A55638","25489863","-","-","254.0 - 256.0","?C","255.0","Celsius"
"[O-][N+](=O)C1=CC=C(C=C1)C1=NOC(Cl)=N1","-","EN300-100248","3569","5-chloro-3-(4-nitrophenyl)-1,2,4-oxadiazole","-","A55638","25489863","-","-","118.0 - 120.0","?C","119.0","Celsius"
"NNC(=O)CN1CCCC1=O","59776-89-5","EN300-10025","3570","2-(2-oxopyrrolidin-1-yl)acetohydrazide","-","A55638","25489863","-","-","99.0 - 101.0","?C","100.0","Celsius"
"CC1=C(C=NC=C1)N1C=CN=C1","-","EN300-100257","3573","3-(1H-imidazol-1-yl)-4-methylpyridine","-","A55638","25489863","-","-","64.0 - 66.0","?C","65.0","Celsius"
"CCOC(=O)CN1C(=O)CNC1=O","117043-46-6","EN300-10026","3574","ethyl (2,5-dioxoimidazolidin-1-yl)acetate","-","A55638","25489863","-","-","109.0 - 111.0","?C","110.0","Celsius"
"CC(C)C1=NC=C(S1)C(O)=O","-","EN300-100262","3575","2-(propan-2-yl)-1,3-thiazole-5-carboxylic acid","-","A55638","25489863","-","-","133.0 - 135.0","?C","134.0","Celsius"
"NC(CSCCC1=CC=CC=C1)C(O)=O","-","EN300-100275","3578","2-amino-3-[(2-phenylethyl)sulfanyl]propanoic acid","-","A55638","25489863","-","-","210.0 - 212.0","?C","211.0","Celsius"
"NC(=O)CC1CC1","-","EN300-100276","3579","2-cyclopropylacetamide","-","A55638","25489863","-","-","125.0 - 127.0","?C","126.0","Celsius"
"COC1=CC2=C(C=C1)C=C(CCl)C(Cl)=N2","73863-49-7","EN300-10029","3580","2-chloro-3-(chloromethyl)-7-methoxyquinoline","-","A55638","25489863","-","-","133.0 - 135.0","?C","134.0","Celsius"
"CC1=CSC2=C1C=C(C=C2)C#N","-","EN300-100306","3581","3-methyl-1-benzothiophene-5-carbonitrile","-","A55638","25489863","-","-","97.0 - 99.0","?C","98.0","Celsius"
"ClCC(=O)NC1=C(C=CC=C1)C(=O)NC1CC1","-","EN300-10034","3582","2-[(chloroacetyl)amino]-N-cyclopropylbenzamide","-","A55638","25489863","-","-","170.0 - 172.0","?C","171.0","Celsius"
"OC(=O)C=CC1=CN(CCC#N)C2=C1C=CC=C2","-","EN300-10035","3583","(2E)-3-[1-(2-cyanoethyl)-1H-indol-3-yl]acrylic acid","-","A55638","25489863","-","-","188.0 - 192.0","?C","190.0","Celsius"
"OC(=O)CSCC1=NC2=C(C3=C(CCC3)S2)C(=O)N1","-","EN300-10038","3586","{[(4-oxo-3,5,6,7-tetrahydro-4H-cyclopenta[4,5]thieno[2,3-d]pyrimidin-2-yl)methyl]thio}acetic acid","-","A55638","25489863","-","-","198.0 - 200.0","?C","199.0","Celsius"
"CCOC(=O)C1=NN=C(N)S1","-","EN300-100385","3587","ethyl 5-amino-1,3,4-thiadiazole-2-carboxylate","-","A55638","25489863","-","-","197.0 - 199.0","?C","198.0","Celsius"
"OC1=CC=C(OC2=NC=CS2)C=C1","-","EN300-100388","3589","4-(1,3-thiazol-2-yloxy)phenol","-","A55638","25489863","-","-","126.0 - 128.0","?C","127.0","Celsius"
"CC1=C(SC(N)=C1C(=O)N1CCOCC1)C1=CC=CC=C1","-","EN300-10039","3590","4-methyl-3-(morpholin-4-ylcarbonyl)-5-phenylthien-2-ylamine","-","A55638","25489863","-","-","187.0 - 189.0","?C","188.0","Celsius"
"CC1=C(O)C(=CC(Br)=C1)[N+]([O-])=O","-","EN300-100390","3591","4-bromo-2-methyl-6-nitrophenol","-","A55638","25489863","-","-","89.0 - 91.0","?C","90.0","Celsius"
"CCN1C=C(C=N1)S(N)(=O)=O","-","EN300-100391","3592","1-ethyl-1H-pyrazole-4-sulfonamide","-","A55638","25489863","-","-","86.0 - 88.0","?C","87.0","Celsius"
"OC(=O)C1=NN=C(C=C1)N1C=C(Br)C=N1","-","EN300-100392","3593","6-(4-bromo-1H-pyrazol-1-yl)pyridazine-3-carboxylic acid","-","A55638","25489863","-","-","209.0 - 211.0","?C","210.0","Celsius"
"NC1=NON=C1C1=CC=C(F)C=C1","-","EN300-100393","3594","4-(4-fluorophenyl)-1,2,5-oxadiazol-3-amine","-","A55638","25489863","-","-","125.0 - 127.0","?C","126.0","Celsius"
"NC1=NN=C(CC2=CC=C(F)C=C2)N1","-","EN300-100394","3595","5-[(4-fluorophenyl)methyl]-4H-1,2,4-triazol-3-amine","-","A55638","25489863","-","-","197.0 - 199.0","?C","198.0","Celsius"
"CC(C)C(C(O)=O)C1=CC(Cl)=CC=C1","-","EN300-100395","3596","2-(3-chlorophenyl)-3-methylbutanoic acid","-","A55638","25489863","-","-","82.0 - 84.0","?C","83.0","Celsius"
"CN1C=CN=C1C(O)CCC1=CC=CC=C1","-","EN300-100396","3597","1-(1-methyl-1H-imidazol-2-yl)-3-phenylpropan-1-ol","-","A55638","25489863","-","-","101.0 - 103.0","?C","102.0","Celsius"
"CN(C)C1=C(N)C(Cl)=NC=N1","-","EN300-100397","3598","6-chloro-4-N,4-N-dimethylpyrimidine-4,5-diamine","-","A55638","25489863","-","-","114.0 - 116.0","?C","115.0","Celsius"
"OC1=CC=C(SC2=C3C=CC(Cl)=CC3=NC=C2)C=C1","-","EN300-100410","3600","4-[(7-chloroquinolin-4-yl)sulfanyl]phenol","-","A55638","25489863","-","-","231.0 - 233.0","?C","232.0","Celsius"
"CC(C)(C)OC1=CC=C(C=C1)C(N)=S","-","EN300-100411","3601","4-(tert-butoxy)benzene-1-carbothioamide","-","A55638","25489863","-","-","179.0 - 181.0","?C","180.0","Celsius"
"CCS(=O)(=O)NCCS(Cl)(=O)=O","-","EN300-100415","3602","2-ethanesulfonamidoethane-1-sulfonyl chloride","-","A55638","25489863","-","-","68.0 - 70.0","?C","69.0","Celsius"
"CCC(OC1=CC(C)=CC=C1)C(O)=O","-","EN300-100419","3605","2-(3-methylphenoxy)butanoic acid","-","A55638","25489863","-","-","72.0 - 74.0","?C","73.0","Celsius"
"CC(C)C(C(N)=O)C1=CN=CC=C1","-","EN300-100421","3607","3-methyl-2-(pyridin-3-yl)butanamide","-","A55638","25489863","-","-","176.0 - 178.0","?C","177.0","Celsius"
"CCN1C=CN=C1C(O)CCC1=CC=CC=C1","-","EN300-100422","3608","1-(1-ethyl-1H-imidazol-2-yl)-3-phenylpropan-1-ol","-","A55638","25489863","-","-","77.0 - 79.0","?C","78.0","Celsius"
"CC1=C2C=CC=CC2=NC(O)=C1C(O)=O","-","EN300-100423","3609","2-hydroxy-4-methylquinoline-3-carboxylic acid","-","A55638","25489863","-","-","254.0 - 256.0","?C","255.0","Celsius"
"OC(=O)C1=CC(=O)C(OCC2=CC=CC=C2)=CO1","-","EN300-100426","3610","5-(benzyloxy)-4-oxo-4H-pyran-2-carboxylic acid","-","A55638","25489863","-","-","179.0 - 181.0","?C","180.0","Celsius"
"CN1C=C(OCC2=CC=CC=C2)C(=O)C=C1CO","-","EN300-100427","3611","5-(benzyloxy)-2-(hydroxymethyl)-1-methyl-1,4-dihydropyridin-4-one","-","A55638","25489863","-","-","221.0 - 223.0","?C","222.0","Celsius"
"OCC1=CC(=O)C(OCC2=CC=CC=C2)=CO1","-","EN300-100429","3612","5-(benzyloxy)-2-(hydroxymethyl)-4H-pyran-4-one","-","A55638","25489863","-","-","96.0 - 98.0","?C","97.0","Celsius"
"CC1=NN(C(=O)C1)C1=CC(Cl)=C(Cl)C=C1","-","EN300-100433","3613","1-(3,4-dichlorophenyl)-3-methyl-4,5-dihydro-1H-pyrazol-5-one","-","A55638","25489863","-","-","158.0 - 160.0","?C","159.0","Celsius"
"COC(C)C1=NC=C(S1)C(O)=O","-","EN300-100438","3615","2-(1-methoxyethyl)-1,3-thiazole-5-carboxylic acid","-","A55638","25489863","-","-","131.0 - 133.0","?C","132.0","Celsius"
"CC(C)CC(CC1=CC(Br)=CC=C1)C(O)=O","-","EN300-100440","3616","2-[(3-bromophenyl)methyl]-4-methylpentanoic acid","-","A55638","25489863","-","-","66.0 - 68.0","?C","67.0","Celsius"
"CC(N1N=CC=C1N)C1=C(Cl)C=CC(Cl)=C1","-","EN300-100465","3620","1-[1-(2,5-dichlorophenyl)ethyl]-1H-pyrazol-5-amine","-","A55638","25489863","-","-","94.0 - 96.0","?C","95.0","Celsius"
"COC1=CC=C(C=C1)C(C)=CC(O)=O","-","EN300-100466","3621","3-(4-methoxyphenyl)but-2-enoic acid","-","A55638","25489863","-","-","108.0 - 110.0","?C","109.0","Celsius"
"OC(=O)CN1C=CN=N1","-","EN300-100467","3622","2-(1H-1,2,3-triazol-1-yl)acetic acid","-","A55638","25489863","-","-","214.0 - 216.0","?C","215.0","Celsius"
"OC(=O)CC1=CSC(=N1)C1=C(Cl)C=CC=C1Cl","-","EN300-10047","3624","[2-(2,6-dichlorophenyl)-1,3-thiazol-4-yl]acetic acid","-","A55638","25489863","-","-","142.0 - 144.0","?C","143.0","Celsius"
"ON1C=CC=CC1=O","-","EN300-100484","3625","1-hydroxy-1,2-dihydropyridin-2-one","-","A55638","25489863","-","-","147.0 - 149.0","?C","148.0","Celsius"
"COC(=O)C1=C(S)N=C2C=CC=CC2=C1O","-","EN300-100494","3626","methyl 4-hydroxy-2-sulfanylquinoline-3-carboxylate","-","A55638","25489863","-","-","179.0 - 181.0","?C","180.0","Celsius"
"CC1=C(F)C=C(C(F)=C1)S(N)(=O)=O","-","EN300-100500","3627","2,5-difluoro-4-methylbenzene-1-sulfonamide","-","A55638","25489863","-","-","132.0 - 134.0","?C","133.0","Celsius"
"BrC1=CC(=CC=C1)C1=NC(C=O)=CS1","750624-69-2","EN300-10051","3630","2-(3-bromophenyl)-1,3-thiazole-4-carbaldehyde","-","A55638","25489863","-","-","99.0 - 101.0","?C","100.0","Celsius"
"CC(Br)C1=CC=C(C=C1)[N+]([O-])=O","-","EN300-100512","3631","1-(1-bromoethyl)-4-nitrobenzene","-","A55638","25489863","-","-","33.0 - 35.0","?C","34.0","Celsius"
"CC1=C(C=C(C(Cl)=C1)S(Cl)(=O)=O)[N+]([O-])=O","-","EN300-100520","3633","2-chloro-4-methyl-5-nitrobenzene-1-sulfonyl chloride","-","A55638","25489863","-","-","129.0 - 131.0","?C","130.0","Celsius"
"COC(=O)C1=C(C=C(OC)C(SC(=O)N(C)C)=C1)[N+]([O-])=O","-","EN300-100525","3634","methyl 5-[(dimethylcarbamoyl)sulfanyl]-4-methoxy-2-nitrobenzoate","-","A55638","25489863","-","-","139.0 - 141.0","?C","140.0","Celsius"
"COC(=O)C1=CC(OC)=C(S1)S(O)(=O)=O","-","EN300-100526","3635","3-methoxy-5-(methoxycarbonyl)thiophene-2-sulfonic acid","-","A55638","25489863","-","-","109.0 - 111.0","?C","110.0","Celsius"
"CN1C=C(C=N1)C1NC(=O)CC[C@@H]1N","-","EN300-100527","3636","(5S)-5-amino-6-(1-methyl-1H-pyrazol-4-yl)piperidin-2-one","-","A55638","25489863","-","-","163.0 - 165.0","?C","164.0","Celsius"
"NC1=CC(=CC(Br)=C1)C(O)=O","-","EN300-100547","3638","3-amino-5-bromobenzoic acid","-","A55638","25489863","-","-","217.0 - 221.0","?C","219.0","Celsius"
"CC1=C(Br)C=C(I)C(N)=N1","-","EN300-100569","3640","5-bromo-3-iodo-6-methylpyridin-2-amine","-","A55638","25489863","-","-","135.0 - 137.0","?C","136.0","Celsius"
"NC1=NC(CN2CCCCC2)=CS1","17386-10-6","EN300-10057","3641","4-(piperidin-1-ylmethyl)-1,3-thiazol-2-amine","-","A55638","25489863","-","-","153.0 - 155.0","?C","154.0","Celsius"
"OC(=O)C1=CN2C(I)=CN=C2C=C1","-","EN300-100570","3642","3-iodoimidazo[1,2-a]pyridine-6-carboxylic acid","-","A55638","25489863","-","-","254.0 - 256.0","?C","255.0","Celsius"
"NC1=CC2=C(OCCO2)C(=C1)C(O)=O","-","EN300-100578","3644","7-amino-2,3-dihydro-1,4-benzodioxine-5-carboxylic acid","-","A55638","25489863","-","-","213.0 - 215.0","?C","214.0","Celsius"
"CC(N)(C(N)=O)C1=CC(=CC=C1)C(F)(F)F","-","EN300-100585","3645","2-amino-2-[3-(trifluoromethyl)phenyl]propanamide","-","A55638","25489863","-","-","84.0 - 86.0","?C","85.0","Celsius"
"FC1=C(F)C(CN2C=C(Br)C=N2)=CC=C1","-","EN300-100592","3647","4-bromo-1-[(2,3-difluorophenyl)methyl]-1H-pyrazole","-","A55638","25489863","-","-","53.0 - 55.0","?C","54.0","Celsius"
"OC(=O)CCCCC1=CC=C(Cl)C=C1","-","EN300-100598","3648","5-(4-chlorophenyl)pentanoic acid","-","A55638","25489863","-","-","64.0 - 66.0","?C","65.0","Celsius"
"CN1N=CC=C1CO","-","EN300-100599","3649","(1-methyl-1H-pyrazol-5-yl)methanol","-","A55638","25489863","-","-","58.0 - 60.0","?C","59.0","Celsius"
"CC(C)(C)OC(=O)NC1=C(N)C=C2OCCOC2=C1","-","EN300-100601","3650","tert-butyl N-(7-amino-2,3-dihydro-1,4-benzodioxin-6-yl)carbamate","-","A55638","25489863","-","-","119.0 - 121.0","?C","120.0","Celsius"
"FC1=C2C(NC=C2C=O)=CC=C1","-","EN300-100613","3651","4-fluoro-1H-indole-3-carbaldehyde","-","A55638","25489863","-","-","169.0 - 171.0","?C","170.0","Celsius"
"C(N1CCNC2=C1C=CC=C2)C1=CC=CC=C1","-","EN300-100617","3652","1-benzyl-1,2,3,4-tetrahydroquinoxaline","-","A55638","25489863","-","-","44.0 - 46.0","?C","45.0","Celsius"
"CCOC1=CC=C(C=C1)C(=O)C(C)Cl","-","EN300-10063","3653","2-chloro-1-(4-ethoxyphenyl)propan-1-one","-","A55638","25489863","-","-","62.0 - 64.0","?C","63.0","Celsius"
"COC(=O)C1=CC2=NC=C(I)N2C=C1","-","EN300-100637","3654","methyl 3-iodoimidazo[1,2-a]pyridine-7-carboxylate","-","A55638","25489863","-","-","209.0 - 211.0","?C","210.0","Celsius"
"CC1=C(CC(N)=NO)C=CC=C1","-","EN300-100644","3655","N'-hydroxy-2-(2-methylphenyl)ethanimidamide","-","A55638","25489863","-","-","121.0 - 123.0","?C","122.0","Celsius"
"CC1=C(OC2=C1C=CC=C2)C(=O)CBr","67382-14-3","EN300-10066","3656","2-bromo-1-(3-methyl-1-benzofuran-2-yl)ethanone","-","A55638","25489863","-","-","110.0 - 112.0","?C","111.0","Celsius"
"O=CC1=C2C=CC=CC2=CN=C1","-","EN300-100667","3657","isoquinoline-4-carbaldehyde","-","A55638","25489863","-","-","103.0 - 105.0","?C","104.0","Celsius"
"COC1=CC=C(C=C1)C1=C(C)SC(=C1)C(O)=O","-","EN300-10067","3658","4-(4-methoxyphenyl)-5-methylthiophene-2-carboxylic acid","-","A55638","25489863","-","-","186.0 - 188.0","?C","187.0","Celsius"
"NC1=NC(CC(=O)C2=CC=CC=C2)=CS1","57626-32-1","EN300-10069","3659","2-(2-amino-1,3-thiazol-4-yl)-1-phenylethanone","-","A55638","25489863","-","-","157.0 - 159.0","?C","158.0","Celsius"
"CCC1=C(OC2=C1C=CC=C2)C(C)=O","-","EN300-10070","3660","1-(3-ethyl-1-benzofuran-2-yl)ethanone","-","A55638","25489863","-","-","33.0 - 35.0","?C","34.0","Celsius"
"CS(=O)(=O)C1=CC(C(O)=O)=C(N)C=C1","-","EN300-100702","3661","2-amino-5-methanesulfonylbenzoic acid","-","A55638","25489863","-","-","239.0 - 241.0","?C","240.0","Celsius"