"SMILES","CASRN","EXTERNALID","N","NAME","NAME","ARTICLEID","PUBMEDID","PAGE","TABLE","Melting Point {measured}","UNIT {Melting Point}","Melting Point {measured, converted}","UNIT {Melting Point}"
"CN(C1CCCCC1)S(=O)(=O)C1=CC=C(N)C=C1","7467-48-3","EN300-09755","3394","4-amino-N-cyclohexyl-N-methylbenzenesulfonamide","-","A55638","25489863","-","-","142.0 - 144.0","?C","143.0","Celsius"
"OC(=O)CCC1=NC2=C(C3=C(CCC3)S2)C(=O)N1","-","EN300-09757","3395","3-(4-oxo-3,5,6,7-tetrahydro-4H-cyclopenta[4,5]thieno[2,3-d]pyrimidin-2-yl)propanoic acid","-","A55638","25489863","-","-","220.0 - 222.0","?C","221.0","Celsius"
"CC(=O)C(C#N)C1=CC=C(Cl)C=C1","5219-07-8","EN300-09759","3396","2-(4-chlorophenyl)-3-oxobutanenitrile","-","A55638","25489863","-","-","129.0 - 131.0","?C","130.0","Celsius"
"OC(=O)CCC(=O)N1CCC(=N1)C1=CC=CC=C1","-","EN300-09760","3397","4-oxo-4-(3-phenyl-4,5-dihydro-1H-pyrazol-1-yl)butanoic acid","-","A55638","25489863","-","-","182.0 - 184.0","?C","183.0","Celsius"
"CC1=CC2=C(C=C1)C(C)=CC(Cl)=N2","88499-92-7","EN300-09766","3398","2-chloro-4,7-dimethylquinoline","-","A55638","25489863","-","-","49.0 - 51.0","?C","50.0","Celsius"
"CC1=NC2=C(C=CC(Cl)=C2)C(=O)N1N","90537-62-5","EN300-09771","3399","3-amino-7-chloro-2-methylquinazolin-4(3H)-one","-","A55638","25489863","-","-","202.0 - 204.0","?C","203.0","Celsius"
"ClCC1=CSC(=N1)C1=C(Cl)C=CC=C1","588676-51-1","EN300-09772","3400","4-(chloromethyl)-2-(2-chlorophenyl)-1,3-thiazole","-","A55638","25489863","-","-","55.0 - 57.0","?C","56.0","Celsius"
"CC(C)(C)CC1=NOC(N)=C1","-","EN300-09773","3401","3-neopentylisoxazol-5-amine","-","A55638","25489863","-","-","87.0 - 89.0","?C","88.0","Celsius"
"COC1=C(C=C(Br)C=C1)C(N)=S","-","EN300-09774","3402","5-bromo-2-methoxybenzenecarbothioamide","-","A55638","25489863","-","-","143.0 - 145.0","?C","144.0","Celsius"
"COC1=CC(=CC=C1)C1=NC(C=O)=CS1","749902-11-2","EN300-09775","3403","2-(3-methoxyphenyl)-1,3-thiazole-4-carbaldehyde","-","A55638","25489863","-","-","92.0 - 94.0","?C","93.0","Celsius"
"CC(C)C1=NOC(NC(=O)CCl)=C1","-","EN300-09776","3404","2-chloro-N-(3-isopropylisoxazol-5-yl)acetamide","-","A55638","25489863","-","-","75.0 - 77.0","?C","76.0","Celsius"
"COC1=C(OC)C=C(C(O)=O)C(NC(=O)C2CC2)=C1","-","EN300-09782","3405","2-[(cyclopropylcarbonyl)amino]-4,5-dimethoxybenzoic acid","-","A55638","25489863","-","-","236.0 - 238.0","?C","237.0","Celsius"
"CC(C)C1=CC=C(C=C1)C(=O)CCl","21886-60-2","EN300-09785","3406","2-chloro-1-(4-isopropylphenyl)ethanone","-","A55638","25489863","-","-","44.0 - 46.0","?C","45.0","Celsius"
"CCOC1=C2OC(=CC2=CC=C1)C(C)=O","58583-72-5","EN300-09789","3409","1-(7-ethoxy-1-benzofuran-2-yl)ethanone","-","A55638","25489863","-","-","72.0 - 74.0","?C","73.0","Celsius"
"CC(C)C1=CC=C(C=C1)C(=O)CC#N","199102-70-0","EN300-09790","3410","3-(4-isopropylphenyl)-3-oxopropanenitrile","-","A55638","25489863","-","-","91.0 - 93.0","?C","92.0","Celsius"
"CCCC1=C(C)SC(=C1)C(O)=O","-","EN300-09792","3411","5-methyl-4-propylthiophene-2-carboxylic acid","-","A55638","25489863","-","-","94.0 - 96.0","?C","95.0","Celsius"
"CC(O)C1=NC2=C(S1)C=CC=C2","17147-80-7","EN300-09795","3412","1-(1,3-benzothiazol-2-yl)ethanol","-","A55638","25489863","-","-","61.0 - 63.0","?C","62.0","Celsius"
"COC1=CC2=C(C=C1)N(C1CCCCC1)C(C)=C2C(O)=O","-","EN300-09796","3413","1-cyclohexyl-5-methoxy-2-methyl-1H-indole-3-carboxylic acid","-","A55638","25489863","-","-","137.0 - 139.0","?C","138.0","Celsius"
"CCOC(C(O)=O)(C1=CC=CC=C1)C1=CC=CC=C1","7495-45-6","EN300-09805","3414","ethoxy(diphenyl)acetic acid","-","A55638","25489863","-","-","113.0 - 115.0","?C","114.0","Celsius"
"CC(C)(C)NC(=O)C1=C(C=CC=C1)C(O)=O","20320-35-8","EN300-09808","3415","2-[(tert-butylamino)carbonyl]benzoic acid","-","A55638","25489863","-","-","146.0 - 148.0","?C","147.0","Celsius"
"CN1CCN(CC1)C1=CC(C)=C(N)C=C1","16154-71-5","EN300-09812","3416","2-methyl-4-(4-methylpiperazin-1-yl)aniline","-","A55638","25489863","-","-","100.0 - 102.0","?C","101.0","Celsius"
"CC1=NC2=C(C=CC=C2)N1CCO","4946-08-1","EN300-09813","3417","2-(2-methyl-1H-benzimidazol-1-yl)ethanol","-","A55638","25489863","-","-","147.0 - 149.0","?C","148.0","Celsius"
"CCOC1=C(OC(F)F)C=CC(C=O)=C1","-","EN300-09815","3418","4-(difluoromethoxy)-3-ethoxybenzaldehyde","-","A55638","25489863","-","-","30.0 - 32.0","?C","31.0","Celsius"
"CC1CCCC(C)N1S(=O)(=O)C1=CC=C(N)C=C1","-","EN300-09819","3419","4-[(2,6-dimethylpiperidin-1-yl)sulfonyl]aniline","-","A55638","25489863","-","-","215.0 - 217.0","?C","216.0","Celsius"
"CCCCN(C)S(=O)(=O)C1=CC=C(N)C=C1","-","EN300-09820","3420","4-amino-N-butyl-N-methylbenzenesulfonamide","-","A55638","25489863","-","-","76.0 - 80.0","?C","78.0","Celsius"
"COC1=CC=C(NC(=O)CSCC(O)=O)C=C1","-","EN300-09822","3421","({2-[(4-methoxyphenyl)amino]-2-oxoethyl}thio)acetic acid","-","A55638","25489863","-","-","112.0 - 114.0","?C","113.0","Celsius"
"OC(=O)CNC(=O)C1=CC=C(C=C1)S(Cl)(=O)=O","-","EN300-09824","3422","{[4-(chlorosulfonyl)benzoyl]amino}acetic acid","-","A55638","25489863","-","-","130.0 - 132.0","?C","131.0","Celsius"
"CC1=CC(C(=O)CCl)=C(C)N1C1=CC(Cl)=C(F)C=C1","-","EN300-09825","3423","2-chloro-1-[1-(3-chloro-4-fluorophenyl)-2,5-dimethyl-1H-pyrrol-3-yl]ethanone","-","A55638","25489863","-","-","115.0 - 117.0","?C","116.0","Celsius"
"CC1=CC(NC(=O)CSCC(O)=O)=CC=C1","-","EN300-09827","3424","({2-[(3-methylphenyl)amino]-2-oxoethyl}thio)acetic acid","-","A55638","25489863","-","-","200.0 - 206.0","?C","203.0","Celsius"
"COCC(C)NC(N)=O","-","EN300-09828","3425","N-(2-methoxy-1-methylethyl)urea","-","A55638","25489863","-","-","73.0 - 75.0","?C","74.0","Celsius"
"[O-][N+](=O)C1=C(C=CC(F)=C1)S(Cl)(=O)=O","-","EN300-09832","3426","4-fluoro-2-nitrobenzenesulfonyl chloride","-","A55638","25489863","-","-","40.0 - 44.0","?C","42.0","Celsius"
"CC(Cl)C(=O)NCC(=O)NC1=C(F)C(F)=C(F)C=C1","-","EN300-09835","3427","2-chloro-N-{2-oxo-2-[(2,3,4-trifluorophenyl)amino]ethyl}propanamide","-","A55638","25489863","-","-","128.0 - 130.0","?C","129.0","Celsius"
"OCC1=CN(N=C1C1=CC=CS1)C1=CC=CC=C1","-","EN300-09837","3428","(1-phenyl-3-thien-2-yl-1H-pyrazol-4-yl)methanol","-","A55638","25489863","-","-","115.0 - 117.0","?C","116.0","Celsius"
"CC1=C(C)C=C(C=C1)C1=NN(C=C1CO)C1=CC=CC=C1","-","EN300-09839","3429","[3-(3,4-dimethylphenyl)-1-phenyl-1H-pyrazol-4-yl]methanol","-","A55638","25489863","-","-","134.0 - 136.0","?C","135.0","Celsius"
"CCCNC(=O)C1=C(N)C=CC=C1","56814-10-9","EN300-09840","3430","2-amino-N-propylbenzamide","-","A55638","25489863","-","-","206.0 - 208.0","?C","207.0","Celsius"
"CCCCOC1=C(OCC)C=C(C=C1Cl)C(O)=O","-","EN300-09841","3431","4-butoxy-3-chloro-5-ethoxybenzoic acid","-","A55638","25489863","-","-","89.0 - 91.0","?C","90.0","Celsius"
"COC(=O)C1=C(N)SC2=C1CCCCC2","-","EN300-09845","3432","methyl 2-amino-5,6,7,8-tetrahydro-4H-cyclohepta[b]thiophene-3-carboxylate","-","A55638","25489863","-","-","94.0 - 98.0","?C","96.0","Celsius"
"CN(C)C1=C(C=C(C=C1)[N+]([O-])=O)C(O)=O","4405-28-1","EN300-09848","3433","2-(dimethylamino)-5-nitrobenzoic acid","-","A55638","25489863","-","-","149.0 - 151.0","?C","150.0","Celsius"
"ClCC1=CSC(=N1)C1=NC=CC=C1","-","EN300-09851","3434","2-[4-(chloromethyl)-1,3-thiazol-2-yl]pyridine","-","A55638","25489863","-","-","85.0 - 87.0","?C","86.0","Celsius"
"ClCC1=CC=C(C=C1)C1=CC=CC=C1","1667-11-4","EN300-09858","3435","4-(Chloromethyl)-1,1'-biphenyl","-","A55638","25489863","-","-","71.0 - 73.0","?C","72.0","Celsius"
"CCOC1=CC(C=O)=C(O)C=C1","80832-54-8","EN300-09859","3436","5-ethoxy-2-hydroxybenzaldehyde","-","A55638","25489863","-","-","49.0 - 51.0","?C","50.0","Celsius"
"OC(=O)C1=C(F)C=CC(=C1)S(Cl)(=O)=O","37098-75-2","EN300-09860","3437","5-(chlorosulfonyl)-2-fluorobenzoic acid","-","A55638","25489863","-","-","107.0 - 109.0","?C","108.0","Celsius"
"BrCCC12CC3CC(CC(C3)C1)C2","773-37-5","EN300-09861","3438","1-(2-bromoethyl)adamantane","-","A55638","25489863","-","-","56.0 - 58.0","?C","57.0","Celsius"
"COC1=CC(C2=NN(C=C2C(O)=O)C2=CC=CC=C2)=C(OC)C=C1","-","EN300-09864","3439","3-(2,5-dimethoxyphenyl)-1-phenyl-1H-pyrazole-4-carboxylic acid","-","A55638","25489863","-","-","174.0 - 176.0","?C","175.0","Celsius"
"O=C(C=C1NC(=O)CS1)C1=CC=CO1","-","EN300-09870","3441","(2E)-2-[2-(2-furyl)-2-oxoethylidene]-1,3-thiazolidin-4-one","-","A55638","25489863","-","-","251.0 - 253.0","?C","252.0","Celsius"
"NC(=S)CN1C(=O)C2=C(C=CC=C2)S1(=O)=O","-","EN300-09872","3442","2-(1,1-dioxido-3-oxo-1,2-benzisothiazol-2(3H)-yl)ethanethioamide","-","A55638","25489863","-","-","160.0 - 162.0","?C","161.0","Celsius"
"ClC1=CC=C(C=C1)C1=CC2=C(S1)C(Cl)=NC=N2","-","EN300-09874","3443","4-chloro-6-(4-chlorophenyl)thieno[3,2-d]pyrimidine","-","A55638","25489863","-","-","188.0 - 190.0","?C","189.0","Celsius"
"CC1(NC(=O)NC1=O)C1=C2C=CC=CC2=CC=C1","-","EN300-09877","3444","5-methyl-5-(1-naphthyl)imidazolidine-2,4-dione","-","A55638","25489863","-","-","105.0 - 107.0","?C","106.0","Celsius"
"COC1=C(C=CC=C1)C(=O)NC1=CC=C(O)C=C1","54090-25-4","EN300-09882","3445","N-(4-hydroxyphenyl)-2-methoxybenzamide","-","A55638","25489863","-","-","172.0 - 174.0","?C","173.0","Celsius"
"CCOC1=CC=C(NC2=C(C=CC=N2)C(O)=O)C=C1","4394-10-9","EN300-09884","3446","2-[(4-ethoxyphenyl)amino]nicotinic acid","-","A55638","25489863","-","-","189.0 - 191.0","?C","190.0","Celsius"
"NN1C=NC2=C(C=NN2C2=CC=CC=C2)C1=O","69923-95-1","EN300-09887","3447","5-amino-1-phenyl-1,5-dihydro-4H-pyrazolo[3,4-d]pyrimidin-4-one","-","A55638","25489863","-","-","233.0 - 235.0","?C","234.0","Celsius"
"SC1=NC2=C(C=NN2C2=CC=CC=C2)C(=O)N1","-","EN300-09888","3448","6-mercapto-1-phenyl-1,5-dihydro-4H-pyrazolo[3,4-d]pyrimidin-4-one","-","A55638","25489863","-","-","110.0 - 113.0","?C","112.0","Celsius"
"CN(C)S(=O)(=O)C1=CC=C(C=C1)S(Cl)(=O)=O","-","EN300-09889","3449","4-[(dimethylamino)sulfonyl]benzenesulfonyl chloride","-","A55638","25489863","-","-","134.0 - 136.0","?C","135.0","Celsius"
"COC1=CC=C(C=C1)S(=O)(=O)NCCC(O)=O","-","EN300-09894","3450","3-{[(4-methoxyphenyl)sulfonyl]amino}propanoic acid","-","A55638","25489863","-","-","125.0 - 127.0","?C","126.0","Celsius"
"COC1=CC=C(C=C1)S(=O)(=O)NC(C(C)C)C(O)=O","-","EN300-09897","3451","2-{[(4-methoxyphenyl)sulfonyl]amino}-3-methylbutanoic acid","-","A55638","25489863","-","-","172.0 - 174.0","?C","173.0","Celsius"
"COC1=CC(NC(=O)C(C)Cl)=C(OC)C=C1","-","EN300-09899","3452","2-chloro-N-(2,5-dimethoxyphenyl)propanamide","-","A55638","25489863","-","-","56.0 - 58.0","?C","57.0","Celsius"
"OC(=O)CSCC(=O)N1CCCCC1","436087-13-7","EN300-09909","3453","[(2-oxo-2-piperidin-1-ylethyl)thio]acetic acid","-","A55638","25489863","-","-","91.0 - 93.0","?C","92.0","Celsius"
"C=CCNC1=NC2=C(CCCC2)S1","65913-05-5","EN300-09918","3454","N-allyl-4,5,6,7-tetrahydro-1,3-benzothiazol-2-amine","-","A55638","25489863","-","-","77.0 - 79.0","?C","78.0","Celsius"
"CC1=NC(S)=NC(N)=C1","-","EN300-09920","3455","4-amino-6-methylpyrimidine-2-thiol","-","A55638","25489863","-","-","295.0 - 297.0","?C","296.0","Celsius"
"CC1=C(C)C=C(NS(=O)(=O)C2=CC=C(N)C=C2)C=C1","20555-67-3","EN300-09921","3456","4-amino-N-(3,4-dimethylphenyl)benzenesulfonamide","-","A55638","25489863","-","-","150.0 - 152.0","?C","151.0","Celsius"
"FC1=CC=C(C=C1)N1C(S)=NN=C1C1=CC=NC=C1","-","EN300-09925","3457","4-(4-fluorophenyl)-5-pyridin-4-yl-4H-1,2,4-triazole-3-thiol","-","A55638","25489863","-","-","165.0 - 175.0","?C","170.0","Celsius"
"CN(C)C1=C(N)N(C)C(=O)NC1=O","14094-38-3","EN300-09929","3458","6-amino-5-(dimethylamino)-1-methylpyrimidine-2,4(1H,3H)-dione","-","A55638","25489863","-","-","161.0 - 163.0","?C","162.0","Celsius"
"BrC1=CC=C(OCC2CO2)C=C1","2212-06-8","EN300-09932","3459","2-[(4-bromophenoxy)methyl]oxirane","-","A55638","25489863","-","-","49.0 - 51.0","?C","50.0","Celsius"
"N#CC1=CC=C(OCC2CO2)C=C1","-","EN300-09935","3460","4-(oxiran-2-ylmethoxy)benzonitrile","-","A55638","25489863","-","-","64.0 - 66.0","?C","65.0","Celsius"
"C(OC1=CC2=C(C=CC=C2)C=C1)C1CO1","5234-06-0","EN300-09937","3461","2-[(2-naphthyloxy)methyl]oxirane","-","A55638","25489863","-","-","62.0 - 64.0","?C","63.0","Celsius"
"CCOC1=CC=C(OCC2CO2)C=C1","18110-26-4","EN300-09939","3462","2-[(4-ethoxyphenoxy)methyl]oxirane","-","A55638","25489863","-","-","53.0 - 55.0","?C","54.0","Celsius"
"ClC1=CC(OCC2CO2)=C(Cl)C=C1","-","EN300-09940","3463","2-[(2,5-dichlorophenoxy)methyl]oxirane","-","A55638","25489863","-","-","62.0 - 64.0","?C","63.0","Celsius"
"OC(=O)C1=C(SC2=CC=C(Br)C=C2)N=CC=C1","955-52-2","EN300-09953","3464","2-[(4-bromophenyl)thio]nicotinic acid","-","A55638","25489863","-","-","223.0 - 225.0","?C","224.0","Celsius"
"CC1=CC(=C(C)N1CC1CCCO1)C1=CSC(N)=N1","-","EN300-09955","3465","4-[2,5-dimethyl-1-(tetrahydrofuran-2-ylmethyl)-1H-pyrrol-3-yl]-1,3-thiazol-2-amine","-","A55638","25489863","-","-","112.0 - 116.0","?C","114.0","Celsius"
"CC(C)C(=O)NC1=CC=C(N)C=C1","441053-25-4","EN300-09958","3466","N-(4-aminophenyl)-2-methylpropanamide","-","A55638","25489863","-","-","74.0 - 76.0","?C","75.0","Celsius"
"CC1=CC=C(SCCC(=O)NN)C=C1","-","EN300-09962","3467","3-[(4-methylphenyl)thio]propanohydrazide","-","A55638","25489863","-","-","106.0 - 108.0","?C","107.0","Celsius"
"CN1C(S)=NN=C1C1=CC=CO1","27106-14-5","EN300-09964","3468","5-(2-furyl)-4-methyl-4H-1,2,4-triazole-3-thiol","-","A55638","25489863","-","-","179.0 - 181.0","?C","180.0","Celsius"
"CC1=NN=C(S)N1C1CCCCC1","38942-56-2","EN300-09965","3469","4-cyclohexyl-5-methyl-4H-1,2,4-triazole-3-thiol","-","A55638","25489863","-","-","164.0 - 166.0","?C","165.0","Celsius"
"SC1=NN=C(N1C1CCCCC1)C1=CC=CO1","-","EN300-09966","3470","4-cyclohexyl-5-(2-furyl)-4H-1,2,4-triazole-3-thiol","-","A55638","25489863","-","-","134.0 - 136.0","?C","135.0","Celsius"
"CC1=C(C=CC=C1)C1=NN=C(S)O1","-","EN300-09967","3471","5-(2-methylphenyl)-1,3,4-oxadiazole-2-thiol","-","A55638","25489863","-","-","188.0 - 190.0","?C","189.0","Celsius"
"OC(=O)CN1C(=O)CNC1=O","80258-94-2","EN300-09968","3472","(2,5-dioxoimidazolidin-1-yl)acetic acid","-","A55638","25489863","-","-","185.0 - 187.0","?C","186.0","Celsius"
"CC1CCCC(NC(=O)NC(=O)CCl)C1C","-","EN300-09970","3473","2-chloro-N-{[(2,3-dimethylcyclohexyl)amino]carbonyl}acetamide","-","A55638","25489863","-","-","131.0 - 133.0","?C","132.0","Celsius"
"CC1CCCCC1NC(=O)NC(=O)CCl","-","EN300-09971","3474","2-chloro-N-{[(2-methylcyclohexyl)amino]carbonyl}acetamide","-","A55638","25489863","-","-","126.0 - 128.0","?C","127.0","Celsius"
"COC(=O)C1=C(N)C2=C(CC(CC2)C(C)(C)C)S1","-","EN300-09973","3475","methyl 3-amino-6-tert-butyl-4,5,6,7-tetrahydro-1-benzothiophene-2-carboxylate","-","A55638","25489863","-","-","153.0 - 155.0","?C","154.0","Celsius"
"COC1=C(OC(C)C)C(Cl)=CC(=C1)C(O)=O","-","EN300-09976","3476","3-chloro-4-isopropoxy-5-methoxybenzoic acid","-","A55638","25489863","-","-","156.0 - 158.0","?C","157.0","Celsius"
"CC1=CC(C=O)=CC(C)=C1OC(F)F","-","EN300-09977","3477","4-(difluoromethoxy)-3,5-dimethylbenzaldehyde","-","A55638","25489863","-","-","56.0 - 58.0","?C","57.0","Celsius"
"COC1=C(OC)C=C(C(O)=O)C(NC(=O)C2CCCC2)=C1","-","EN300-09979","3478","2-[(cyclopentylcarbonyl)amino]-4,5-dimethoxybenzoic acid","-","A55638","25489863","-","-","193.0 - 195.0","?C","194.0","Celsius"
"COC1=C(OC)C=C(C(O)=O)C(NC(=O)CC2=CC=CS2)=C1","332163-07-2","EN300-09982","3479","4,5-dimethoxy-2-[(thien-2-ylacetyl)amino]benzoic acid","-","A55638","25489863","-","-","195.0 - 197.0","?C","196.0","Celsius"
"COC1=C(OC)C=C(C(O)=O)C(NC(=O)C2CC2C)=C1","-","EN300-09983","3480","4,5-dimethoxy-2-{[(2-methylcyclopropyl)carbonyl]amino}benzoic acid","-","A55638","25489863","-","-","207.0 - 209.0","?C","208.0","Celsius"
"CCCCCC(=O)NC1=C(C=C(OC)C(OC)=C1)C(O)=O","-","EN300-09985","3481","2-(hexanoylamino)-4,5-dimethoxybenzoic acid","-","A55638","25489863","-","-","178.0 - 180.0","?C","179.0","Celsius"
"BrC1=CC(C=O)=C(OCC#C)C=C1","122835-14-7","EN300-09990","3482","5-bromo-2-(prop-2-ynyloxy)benzaldehyde","-","A55638","25489863","-","-","94.0 - 98.0","?C","96.0","Celsius"
"NNC1=NC=C(C=C1)S(=O)(=O)N1CCCCC1","-","EN300-09991","3483","2-hydrazino-5-(piperidin-1-ylsulfonyl)pyridine","-","A55638","25489863","-","-","186.0 - 188.0","?C","187.0","Celsius"
"CC(C)N(C(C)C)S(=O)(=O)C1=CN=C(NN)C=C1","-","EN300-09992","3484","6-hydrazino-N,N-diisopropylpyridine-3-sulfonamide","-","A55638","25489863","-","-","159.0 - 161.0","?C","160.0","Celsius"
"CCOC1=C(OC(F)F)C=CC(=C1)C(O)=O","-","EN300-09995","3485","4-(difluoromethoxy)-3-ethoxybenzoic acid","-","A55638","25489863","-","-","159.0 - 161.0","?C","160.0","Celsius"
"CCN(CC)C(=O)C1=CC(N)=CC=C1","68269-83-0","EN300-09996","3486","3-amino-N,N-diethylbenzamide","-","A55638","25489863","-","-","81.0 - 83.0","?C","82.0","Celsius"
"C1COC2=C(N1)C=CC=N2","-","EN300-100006","3487","1H,2H,3H-pyrido[2,3-b][1,4]oxazine","-","A55638","25489863","-","-","111.0 - 113.0","?C","112.0","Celsius"
"OC(=O)CC1=CC(=CC=C1)C#N","-","EN300-100008","3488","2-(3-cyanophenyl)acetic acid","-","A55638","25489863","-","-","117.0 - 119.0","?C","118.0","Celsius"
"CCOC(=O)CC1=CC(=CC=C1)C#N","-","EN300-100009","3489","ethyl 2-(3-cyanophenyl)acetate","-","A55638","25489863","-","-","47.0 - 49.0","?C","48.0","Celsius"
"CCOC(=O)C1=C(Cl)N=C2C=CC=CC2=C1C","-","EN300-100010","3490","ethyl 2-chloro-4-methylquinoline-3-carboxylate","-","A55638","25489863","-","-","109.0 - 111.0","?C","110.0","Celsius"
"ClCCCNC(=O)C1CCCC1","-","EN300-100011","3491","N-(3-chloropropyl)cyclopentanecarboxamide","-","A55638","25489863","-","-","66.0 - 68.0","?C","67.0","Celsius"
"CC(O)C1=NC2=C(C=CC(Cl)=C2)N1C","-","EN300-100012","3492","1-(5-chloro-1-methyl-1H-1,3-benzodiazol-2-yl)ethan-1-ol","-","A55638","25489863","-","-","136.0 - 138.0","?C","137.0","Celsius"
"CN1C2=C(C=C(Cl)C=C2)N=C1C(C)=O","-","EN300-100013","3493","1-(5-chloro-1-methyl-1H-1,3-benzodiazol-2-yl)ethan-1-one","-","A55638","25489863","-","-","96.0 - 98.0","?C","97.0","Celsius"
"OC(=O)C1=C(Cl)C=CC(=C1)S(=O)(=O)N1CCC1","-","EN300-100014","3494","5-(azetidine-1-sulfonyl)-2-chlorobenzoic acid","-","A55638","25489863","-","-","172.0 - 174.0","?C","173.0","Celsius"
"CC(O)C1=NC2=C(C=C(Cl)C=C2)N1C","-","EN300-100015","3495","1-(6-chloro-1-methyl-1H-1,3-benzodiazol-2-yl)ethan-1-ol","-","A55638","25489863","-","-","149.0 - 151.0","?C","150.0","Celsius"
"CC1=C2C=CC=CC2=NC=C1C(O)=O","-","EN300-100020","3496","4-methylquinoline-3-carboxylic acid","-","A55638","25489863","-","-","254.0 - 256.0","?C","255.0","Celsius"
"CC1=CC2=C(SC(=N2)C2=CC=C(CCl)C=C2)C=C1","-","EN300-100021","3497","2-[4-(chloromethyl)phenyl]-5-methyl-1,3-benzothiazole","-","A55638","25489863","-","-","149.0 - 151.0","?C","150.0","Celsius"
"CC(O)(C1=CC=C(C=C1)[N+]([O-])=O)C(F)(F)F","-","EN300-100022","3498","1,1,1-trifluoro-2-(4-nitrophenyl)propan-2-ol","-","A55638","25489863","-","-","86.0 - 88.0","?C","87.0","Celsius"
"CN(C)C1=CC(O)=C(C=C1)C(C)=O","-","EN300-100023","3499","1-[4-(dimethylamino)-2-hydroxyphenyl]ethan-1-one","-","A55638","25489863","-","-","120.0 - 122.0","?C","121.0","Celsius"
"SCC(=O)NC1=NC=CC=C1","-","EN300-100034","3502","N-(pyridin-2-yl)-2-sulfanylacetamide","-","A55638","25489863","-","-","93.0 - 95.0","?C","94.0","Celsius"
"CC1=C(C=C(S1)C(O)=O)C1=CC=C(F)C=C1","-","EN300-100036","3503","4-(4-fluorophenyl)-5-methylthiophene-2-carboxylic acid","-","A55638","25489863","-","-","156.0 - 158.0","?C","157.0","Celsius"
"CC1=C(C)C=C(NC(=O)OC(C)(C)C)S1","-","EN300-100038","3504","tert-butyl N-(4,5-dimethylthiophen-2-yl)carbamate","-","A55638","25489863","-","-","102.0 - 104.0","?C","103.0","Celsius"
"NC(=O)C1=C(NC(=O)CCC(O)=O)SC=C1","-","EN300-10004","3505","4-{[3-(aminocarbonyl)thien-2-yl]amino}-4-oxobutanoic acid","-","A55638","25489863","-","-","243.0 - 245.0","?C","244.0","Celsius"
"ClCC1=NC(=NN1)C1=CC=CS1","-","EN300-100045","3506","5-(chloromethyl)-3-(thiophen-2-yl)-1H-1,2,4-triazole","-","A55638","25489863","-","-","159.0 - 161.0","?C","160.0","Celsius"
"[O-][N+](=O)C1=CC=C(OCC(F)(F)F)C=C1","-","EN300-100051","3507","1-nitro-4-(2,2,2-trifluoroethoxy)benzene","-","A55638","25489863","-","-","73.0 - 75.0","?C","74.0","Celsius"