"SMILES","CASRN","EXTERNALID","N","NAME","NAME","ARTICLEID","PUBMEDID","PAGE","TABLE","Melting Point {measured}","UNIT {Melting Point}","Melting Point {measured, converted}","UNIT {Melting Point}"
"CC1=CC=C(C=C1)S(=O)(=O)N(CCC(O)=O)C1=CC=CC=C1","65148-06-3","EN300-05171","1835","3-[Phenyl-(toluene-4-sulfonyl)-amino]-propionic acid","-","A55638","25489863","-","-","145.0 - 147.0","?C","146.0","Celsius"
"CC1=CC=CC(C)=C1NC(=O)CCCCl","77470-76-9","EN300-05178","1836","4-Chloro-N-(2,6-dimethyl-phenyl)-butyramide","-","A55638","25489863","-","-","104.0 - 106.0","?C","105.0","Celsius"
"COC1=C(N)C=C(C=C1)S(=O)(=O)N1CCCCCC1","-","EN300-05182","1837","5-(Azepane-1-sulfonyl)-2-methoxy-phenylamine","-","A55638","25489863","-","-","118.0 - 119.0","?C","118.0","Celsius"
"OC(=O)C1=CC=C(C=C1)N1CCCC1=O","36151-44-7","EN300-05183","1838","4-(2-Oxo-pyrrolidin-1-yl)-benzoic acid","-","A55638","25489863","-","-","250.0 - 252.0","?C","251.0","Celsius"
"CC1=CC2=C(C=C1)C(CCl)=CC(=O)O2","41295-51-6","EN300-05184","1839","4-Chloromethyl-7-methyl-chromen-2-one","-","A55638","25489863","-","-","170.0 - 172.0","?C","171.0","Celsius"
"CC1CCC2=C(C1)C1=C(N2)C=CC(=C1)C(O)=O","446829-41-0","EN300-05185","1840","6-Methyl-6,7,8,9-tetrahydro-5H-carbazole-3-carboxylic acid","-","A55638","25489863","-","-","218.0 - 220.0","?C","219.0","Celsius"
"CSC1=CC=C(C=CC(O)=O)C=C1","102016-58-0","EN300-05189","1841","3-(4-Methylsulfanyl-phenyl)-acrylic acid","-","A55638","25489863","-","-","177.0 - 179.0","?C","178.0","Celsius"
"OC(=O)CCNS(=O)(=O)C1=CC(=C(Cl)C=C1)[N+]([O-])=O","-","EN300-05192","1842","3-(4-Chloro-3-nitro-benzenesulfonylamino)-propionic acid","-","A55638","25489863","-","-","113.0 - 115.0","?C","114.0","Celsius"
"OC(=O)CCCCCNS(=O)(=O)C1=CC2=C(OCCO2)C=C1","-","EN300-05193","1843","6-(2,3-Dihydro-benzo[1,4]dioxine-6-sulfonylamino)-hexanoic acid","-","A55638","25489863","-","-","86.0 - 90.0","?C","88.0","Celsius"
"OC(=O)CNS(=O)(=O)C1=CC(=C(Cl)C=C1)[N+]([O-])=O","-","EN300-05196","1844","(4-Chloro-3-nitro-benzenesulfonylamino)-acetic acid","-","A55638","25489863","-","-","150.0 - 152.0","?C","151.0","Celsius"
"CN1N(C(=O)C(N2C(C)=CC(C(=O)CCl)=C2C)=C1C)C1=CC=CC=C1","-","EN300-05197","1845","4-[3-(2-Chloro-acetyl)-2,5-dimethyl-pyrrol-1-yl]-1,5-dimethyl-2-phenyl-1,2-dihydro-pyrazol-3-one","-","A55638","25489863","-","-","160.0 - 162.0","?C","161.0","Celsius"
"FC(F)(F)CNC(=O)CCl","-","EN300-05199","1846","2-Chloro-N-(2,2,2-trifluoro-ethyl)-acetamide","-","A55638","25489863","-","-","51.0 - 53.0","?C","52.0","Celsius"
"COCC(C)NC(=O)CC#N","-","EN300-05204","1847","2-Cyano-N-(2-methoxy-1-methyl-ethyl)-acetamide","-","A55638","25489863","-","-","40.0 - 44.0","?C","42.0","Celsius"
"NC1=NN2C=C(N=C2S1)C1=CC=CC=C1","10136-64-8","EN300-05208","1848","6-Phenyl-imidazo[2,1-b][1,3,4]thiadiazol-2-ylamine","-","A55638","25489863","-","-","183.0 - 185.0","?C","184.0","Celsius"
"CC(C)N1C(S)=NC2=C1C=CC=C2","2416-65-1","EN300-05209","1849","1-Isopropyl-1H-benzoimidazole-2-thiol","-","A55638","25489863","-","-","138.0 - 140.0","?C","139.0","Celsius"
"NNC1=C(Cl)C=C(Cl)C(Cl)=N1","55933-94-3","EN300-05210","1850","(3,5,6-Trichloro-pyridin-2-yl)-hydrazine","-","A55638","25489863","-","-","161.0 - 163.0","?C","162.0","Celsius"
"NC1=NC(=CS1)C1=C(F)C=CC(F)=C1","-","EN300-05211","1851","4-(2,5-Difluoro-phenyl)-thiazol-2-ylamine","-","A55638","25489863","-","-","145.0 - 147.0","?C","146.0","Celsius"
"FC1=CC(C(=O)CCl)=C(F)C=C1","60468-36-2","EN300-05212","1852","2-Chloro-1-(2,5-difluoro-phenyl)-ethanone","-","A55638","25489863","-","-","116.0 - 119.0","?C","118.0","Celsius"
"CC(C)CN1C=NC2=C1C(=O)NC(=O)N2CC1=CC=CC=C1","-","EN300-05214","1853","3-Benzyl-7-isobutyl-3,7-dihydro-purine-2,6-dione","-","A55638","25489863","-","-","179.0 - 181.0","?C","180.0","Celsius"
"OC(=O)C1CC2=C(CN1C(=O)CCl)C=CC=C2","-","EN300-05216","1854","2-(2-Chloro-acetyl)-1,2,3,4-tetrahydro-isoquinoline-3-carboxylic acid","-","A55638","25489863","-","-","153.0 - 155.0","?C","154.0","Celsius"
"SC1=NN=C(CC2=CC=CC=C2)O1","23288-90-6","EN300-05218","1855","5-Benzyl-[1,3,4]oxadiazole-2-thiol","-","A55638","25489863","-","-","124.0 - 126.0","?C","125.0","Celsius"
"CC1=C(C#N)C2=NC3=C(C=CC=C3)N2C(S)=C1","-","EN300-05224","1857","1-Mercapto-3-methyl-benzo[4,5]imidazo[1,2-a]pyridine-4-carbonitrile","-","A55638","25489863","-","-","198.0 - 200.0","?C","199.0","Celsius"
"CN1C2=C(C=CC=C2)C(C(=O)CC#N)=C1C1=CC=CC=C1","568553-08-2","EN300-05230","1858","3-(1-Methyl-2-phenyl-1H-indol-3-yl)-3-oxo-propionitrile","-","A55638","25489863","-","-","155.0 - 157.0","?C","156.0","Celsius"
"CCN1C(S)=NC2=C(C=CC=C2)C1=O","13906-08-6","EN300-05231","1859","3-Ethyl-2-mercapto-3H-quinazolin-4-one","-","A55638","25489863","-","-","257.0 - 259.0","?C","258.0","Celsius"
"CCCC(C(O)=O)C1=CC=CC=C1","-","EN300-05233","1860","2-Phenyl-pentanoic acid","-","A55638","25489863","-","-","63.0 - 67.0","?C","65.0","Celsius"
"OC(=O)CN1C=NC2=C(C=CC=C2)C1=O","14663-53-7","EN300-05236","1861","(4-Oxo-4H-quinazolin-3-yl)-acetic acid","-","A55638","25489863","-","-","241.0 - 243.0","?C","242.0","Celsius"
"CCOC1=CC=C(OCC(O)=O)C=C1","5327-91-3","EN300-05237","1862","(4-Ethoxy-phenoxy)-acetic acid","-","A55638","25489863","-","-","125.0 - 130.0","?C","128.0","Celsius"
"OC(=O)CCCCCNC1=NS(=O)(=O)C2=C1C=CC=C2","-","EN300-05240","1863","6-(1,1-Dioxo-1H-1lambda*6*-benzo[d]isothiazol-3-ylamino)-hexanoic acid","-","A55638","25489863","-","-","189.0 - 191.0","?C","190.0","Celsius"
"CC1=CC=C(O1)C=CC(O)=O","14779-25-0","EN300-05241","1864","3-(5-Methyl-furan-2-yl)-acrylic acid","-","A55638","25489863","-","-","118.0 - 120.0","?C","119.0","Celsius"
"COC(=O)C1=C(C)C2=C(S1)N=C(CCl)N=C2Cl","-","EN300-05242","1865","4-Chloro-2-chloromethyl-5-methyl-thieno[2,3-d]pyrimidine-6-carboxylic acid methyl ester","-","A55638","25489863","-","-","125.0 - 127.0","?C","126.0","Celsius"
"CN(C1=CC=C(O)C=C1)S(=O)(=O)C1=C(F)C=CC=C1","-","EN300-05260","1866","2-Fluoro-N-(4-hydroxy-phenyl)-N-methyl-benzenesulfonamide","-","A55638","25489863","-","-","100.0 - 102.0","?C","101.0","Celsius"
"CC1=NN(CC2=CC=C(Cl)C=C2)C2=C1C=C(S2)C(O)=O","-","EN300-05266","1867","1-(4-Chloro-benzyl)-3-methyl-1H-thieno[2,3-c]pyrazole-5-carboxylic acid","-","A55638","25489863","-","-","245.0 - 247.0","?C","246.0","Celsius"
"NC(=O)C1=C(NC(=O)CCC(O)=O)SC2=C1CCC2","-","EN300-05268","1868","N-(3-Carbamoyl-5,6-dihydro-4H-cyclopenta[b]thiophen-2-yl)-succinamic acid","-","A55638","25489863","-","-","231.0 - 233.0","?C","232.0","Celsius"
"COC1=CC2=C(C=C1)C(CCl)=CC(=O)O2","41295-55-0","EN300-05269","1869","4-Chloromethyl-7-methoxy-chromen-2-one","-","A55638","25489863","-","-","189.0 - 191.0","?C","190.0","Celsius"
"NC(=O)NC1CCCC1","1194-06-5","EN300-05270","1870","Cyclopentyl-urea","-","A55638","25489863","-","-","192.0 - 194.0","?C","193.0","Celsius"
"COC(=O)CC1=CSC(N)=N1","64987-16-2","EN300-05271","1871","(2-Amino-thiazol-4-yl)-acetic acid methyl ester","-","A55638","25489863","-","-","123.0 - 125.0","?C","124.0","Celsius"
"ClCC1=CC(=O)OC2=C1C1=C(C=CC=C1)C=C2","41295-62-9","EN300-05275","1872","1-Chloromethyl-benzo[f]chromen-3-one","-","A55638","25489863","-","-","119.0 - 120.0","?C","120.0","Celsius"
"OC(=O)CCC(=O)NC1=C(C(=O)NCC2CCCO2)C2=C(CCCC2)S1","-","EN300-05276","1873","N-{3-[(Tetrahydro-furan-2-ylmethyl)-carbamoyl]-4,5,6,7-tetrahydro-benzo[b]thiophen-2-yl}-succinamic acid","-","A55638","25489863","-","-","151.0 - 153.0","?C","152.0","Celsius"
"OC(=O)CCC(=O)N1CCOCC1","67900-19-0","EN300-05277","1874","4-Morpholin-4-yl-4-oxo-butyric acid","-","A55638","25489863","-","-","61.0 - 65.0","?C","63.0","Celsius"
"OC(=O)C=CC1=CC=C(OC(F)F)C=C1","-","EN300-05280","1875","3-(4-Difluoromethoxy-phenyl)-acrylic acid","-","A55638","25489863","-","-","182.0 - 184.0","?C","183.0","Celsius"
"NC(=O)NC1=CC=C(C=C1)C(O)=O","6306-25-8","EN300-05282","1876","4-Ureido-benzoic acid","-","A55638","25489863","-","-","296.0 - 298.0","?C","297.0","Celsius"
"OC(=O)C1=C(C=CC(=C1)[N+]([O-])=O)N1CCCCC1","42106-50-3","EN300-05283","1877","5-Nitro-2-piperidin-1-yl-benzoic acid","-","A55638","25489863","-","-","194.0 - 196.0","?C","195.0","Celsius"
"CC1=C(C)C=C(C=C1)S(=O)(=O)NC1=CC=C(C=C1)C(O)=O","-","EN300-05287","1879","4-(3,4-Dimethyl-benzenesulfonylamino)-benzoic acid","-","A55638","25489863","-","-","219.0 - 221.0","?C","220.0","Celsius"
"O=C1NC(=O)C2=C(N=CN2C2CCCC2)N1CC1=CC=CC=C1","-","EN300-05293","1880","3-Benzyl-7-cyclopentyl-3,7-dihydro-purine-2,6-dione","-","A55638","25489863","-","-","252.0 - 254.0","?C","253.0","Celsius"
"NC1=NC(=CS1)C1=CC=NC=C1","30235-28-0","EN300-05296","1881","4-Pyridin-4-yl-thiazol-2-ylamine","-","A55638","25489863","-","-","172.0 - 174.0","?C","173.0","Celsius"
"CCOC(=O)C1=C(N)SC=C1CC(C)C","-","EN300-05309","1882","2-Amino-4-isobutyl-thiophene-3-carboxylic acid ethyl ester","-","A55638","25489863","-","-","58.0 - 60.0","?C","59.0","Celsius"
"CCOC(=O)C1=C(NC(=O)CCl)SC(C(C)=O)=C1C","-","EN300-05312","1883","5-Acetyl-2-(2-chloro-acetylamino)-4-methyl-thiophene-3-carboxylic acid ethyl ester","-","A55638","25489863","-","-","176.0 - 178.0","?C","177.0","Celsius"
"ClC(=CC#N)C1=CC=CC=C1","78583-84-3","EN300-05322","1884","3-Chloro-3-phenyl-acrylonitrile","-","A55638","25489863","-","-","32.0 - 34.0","?C","33.0","Celsius"
"CN1C(=O)N(C)C2=C(C(=O)C=C(N)N2)C1=O","117525-95-8","EN300-05327","1885","7-Amino-1,3-dimethyl-1H,8H-pyrido[2,3-d]pyrimidine-2,4,5-trione","-","A55638","25489863","-","-","316.0 - 318.0","?C","317.0","Celsius"
"CCC(=O)NC1=CC=C(C=C1)C(=O)CCl","-","EN300-05328","1886","N-[4-(2-Chloro-acetyl)-phenyl]-propionamide","-","A55638","25489863","-","-","104.0 - 106.0","?C","105.0","Celsius"
"OC(=O)COC1=CC2=C(CCC2)C=C1","1878-58-6","EN300-05329","1887","(Indan-5-yloxy)-acetic acid","-","A55638","25489863","-","-","154.0 - 156.0","?C","155.0","Celsius"
"NC(=S)NC1=CC2=C(OCCO2)C=C1","-","EN300-05330","1888","(2,3-Dihydro-benzo[1,4]dioxin-6-yl)-thiourea","-","A55638","25489863","-","-","211.0 - 213.0","?C","212.0","Celsius"
"CC1=CC(C)=C(OCC(O)=O)C(C)=C1","13333-81-8","EN300-05332","1889","(2,4,6-Trimethyl-phenoxy)-acetic acid","-","A55638","25489863","-","-","150.0 - 152.0","?C","151.0","Celsius"
"CC1=CC(OCC(O)=O)=C(Cl)C=C1","1556-00-9","EN300-05333","1890","(2-Chloro-5-methyl-phenoxy)-acetic acid","-","A55638","25489863","-","-","134.0 - 136.0","?C","135.0","Celsius"
"CCOC1=C(OCC2=CC=CC=C2)C(Br)=CC(C=O)=C1","-","EN300-05335","1891","4-Benzyloxy-3-bromo-5-ethoxy-benzaldehyde","-","A55638","25489863","-","-","55.0 - 57.0","?C","56.0","Celsius"
"BrC1=CC(C=O)=CC(Br)=C1OCC1=CC=CC=C1","249515-06-8","EN300-05336","1892","4-Benzyloxy-3,5-dibromo-benzaldehyde","-","A55638","25489863","-","-","78.0 - 80.0","?C","79.0","Celsius"
"COC1=C(OCC2=CC=CC=C2)C(Br)=CC(C=O)=C1","2556-04-9","EN300-05339","1893","4-Benzyloxy-3-bromo-5-methoxy-benzaldehyde","-","A55638","25489863","-","-","48.0 - 50.0","?C","49.0","Celsius"
"CN(C)C1=CC=C(C=C1)C1NCC(CCl)O1","17996-49-5","EN300-05342","1894","[4-(5-Chloromethyl-oxazolidin-2-yl)-phenyl]-dimethyl-amine","-","A55638","25489863","-","-","104.0 - 106.0","?C","105.0","Celsius"
"CCOC(=O)C1=C(NC(=O)CCl)SC=C1CC(C)C","-","EN300-05345","1895","2-(2-Chloro-acetylamino)-4-isobutyl-thiophene-3-carboxylic acid ethyl ester","-","A55638","25489863","-","-","98.0 - 100.0","?C","99.0","Celsius"
"CC(C)C1=C(OC2=C(C=C(C=O)C=C2)[N+]([O-])=O)C=C(C)C=C1","-","EN300-05346","1896","4-(2-Isopropyl-5-methyl-phenoxy)-3-nitro-benzaldehyde","-","A55638","25489863","-","-","109.0 - 111.0","?C","110.0","Celsius"
"CCC1=CC=C(OCC2=NN=C(S)N2C(C)C2=CC=CC=C2)C=C1","-","EN300-05348","1897","5-(4-Ethyl-phenoxymethyl)-4-(1-phenyl-ethyl)-4H-[1,2,4]triazole-3-thiol","-","A55638","25489863","-","-","143.0 - 145.0","?C","144.0","Celsius"
"CCCOC1=C(OCC)C=C(C=O)C=C1","350988-41-9","EN300-05349","1898","3-Ethoxy-4-propoxy-benzaldehyde","-","A55638","25489863","-","-","36.0 - 38.0","?C","37.0","Celsius"
"C(NC1=NC2=C(N1)C=CC=C2)C1=CC=CC=C1","27185-21-3","EN300-05350","1899","(1H-Benzoimidazol-2-yl)-benzyl-amine","-","A55638","25489863","-","-","147.0 - 149.0","?C","148.0","Celsius"
"CCOC1=C(OCC2=CC=C(C=C2)C(C)(C)C)C=CC(C=O)=C1","-","EN300-05351","1900","4-(4-tert-Butyl-benzyloxy)-3-ethoxy-benzaldehyde","-","A55638","25489863","-","-","113.0 - 115.0","?C","114.0","Celsius"
"NC1=NN=C(N)S1","2937-81-7","EN300-05352","1901","[1,3,4]Thiadiazole-2,5-diamine","-","A55638","25489863","-","-","192.0 - 194.0","?C","193.0","Celsius"
"CC1=CC=C(CN2CC(CC2=O)C(O)=O)C=C1","96449-91-1","EN300-05355","1902","1-(4-Methyl-benzyl)-5-oxo-pyrrolidine-3-carboxylic acid","-","A55638","25489863","-","-","152.0 - 156.0","?C","154.0","Celsius"
"NC1=NN2C=C(N=C2C2=C1C=CC=C2)C1=CC=CC=C1","-","EN300-05360","1903","2-Phenyl-imidazo[2,1-a]phthalazin-6-ylamine","-","A55638","25489863","-","-","215.0 - 217.0","?C","216.0","Celsius"
"CCOC1=CC=C(C=C1)N1CC(CC1=O)C(O)=O","38160-04-2","EN300-05361","1904","1-(4-Ethoxy-phenyl)-5-oxo-pyrrolidine-3-carboxylic acid","-","A55638","25489863","-","-","133.0 - 137.0","?C","135.0","Celsius"
"ClCC1=NC2=C(C3=C(CCCC3)S2)C(Cl)=N1","88203-17-2","EN300-05362","1905","4-Chloro-2-chloromethyl-5,6,7,8-tetrahydro-benzo[4,5]thieno[2,3-d]pyrimidine","-","A55638","25489863","-","-","89.0 - 91.0","?C","90.0","Celsius"
"OC(=O)C1=CC=C(OCC2CCCO2)C=C1","-","EN300-05363","1906","4-(Tetrahydro-furan-2-ylmethoxy)-benzoic acid","-","A55638","25489863","-","-","130.0 - 132.0","?C","131.0","Celsius"
"COC(=O)C1=CC=C(C=CC(O)=O)C=C1","19473-96-2","EN300-05364","1907","4-(2-Carboxy-vinyl)-benzoic acid methyl ester","-","A55638","25489863","-","-","236.0 - 238.0","?C","237.0","Celsius"
"CC1=C(C)C2=C(S1)N=C(CCl)N=C2Cl","88203-19-4","EN300-05365","1908","4-Chloro-2-chloromethyl-5,6-dimethyl-thieno[2,3-d]pyrimidine","-","A55638","25489863","-","-","142.0 - 144.0","?C","143.0","Celsius"
"OC(=O)COC1=C(Br)C2=C(C=CC=C2)C=C1","41791-59-7","EN300-05367","1909","(1-Bromo-naphthalen-2-yloxy)-acetic acid","-","A55638","25489863","-","-","158.0 - 160.0","?C","159.0","Celsius"
"CC(C)C1=C(C)C=C(OCC(O)=O)C=C1","105401-43-2","EN300-05368","1910","(4-Isopropyl-3-methyl-phenoxy)-acetic acid","-","A55638","25489863","-","-","117.0 - 121.0","?C","119.0","Celsius"
"NC(=O)NCC1=CC=CO1","5962-13-0","EN300-05369","1911","Furan-2-ylmethyl-urea","-","A55638","25489863","-","-","120.0 - 122.0","?C","121.0","Celsius"
"CNC(=O)NC(=O)CCl","4791-22-4","EN300-05374","1912","1-(2-Chloro-acetyl)-3-methyl-urea","-","A55638","25489863","-","-","155.0 - 157.0","?C","156.0","Celsius"
"BrC1=C(OCC2=CC=CC=C2)C=CC(C=O)=C1","-","EN300-05378","1913","1000414-11-8","4-Benzyloxy-3-bromo-benzaldehyde","A55638","25489863","-","-","96.0 - 98.0","?C","97.0","Celsius"
"CC1=C(OC2=C3C=CC=CC3=CC=C12)C(O)=O","32730-10-2","EN300-05379","1914","3-Methyl-naphtho[1,2-b]furan-2-carboxylic acid","-","A55638","25489863","-","-","206.0 - 208.0","?C","207.0","Celsius"
"COCCN1C(C)=CC(C=O)=C1C","445023-46-1","EN300-05384","1915","1-(2-Methoxy-ethyl)-2,5-dimethyl-1H-pyrrole-3-carbaldehyde","-","A55638","25489863","-","-","44.0 - 46.0","?C","45.0","Celsius"
"O=C1CC(=NN1C1=CC=CC=C1)C1=CC=CC=C1","4845-49-2","EN300-05386","1917","2,5-Diphenyl-2,4-dihydro-pyrazol-3-one","-","A55638","25489863","-","-","138.0 - 140.0","?C","139.0","Celsius"
"ClCC(=O)N1CCCC1=O","43170-60-1","EN300-05387","1918","1-(2-Chloro-acetyl)-pyrrolidin-2-one","-","A55638","25489863","-","-","33.0 - 35.0","?C","34.0","Celsius"
"CC1=NN(CC2=CC=C(F)C=C2)C(Cl)=C1C=O","-","EN300-05391","1919","5-Chloro-1-(4-fluoro-benzyl)-3-methyl-1H-pyrazole-4-carbaldehyde","-","A55638","25489863","-","-","49.0 - 51.0","?C","50.0","Celsius"
"CC1=NN(CC2=C(Cl)C=C(Cl)C=C2)C(=O)C1","-","EN300-05395","1920","2-(2,4-Dichloro-benzyl)-5-methyl-2,4-dihydro-pyrazol-3-one","-","A55638","25489863","-","-","128.0 - 130.0","?C","129.0","Celsius"
"CCOC1=C(OCCOC2=CC=C(F)C=C2)C=CC(C=O)=C1","-","EN300-05403","1921","3-Ethoxy-4-[2-(4-fluoro-phenoxy)-ethoxy]-benzaldehyde","-","A55638","25489863","-","-","85.0 - 87.0","?C","86.0","Celsius"
"CCN1C(N)=CC(=O)NC1=O","41862-09-3","EN300-05414","1922","6-Amino-1-ethyl-1H-pyrimidine-2,4-dione","-","A55638","25489863","-","-","125.0 - 127.0","?C","126.0","Celsius"
"COC(=O)C1=C(N)SC2=C1CCC2","184174-80-9","EN300-05416","1923","2-Amino-5,6-dihydro-4H-cyclopenta[b]thiophene-3-carboxylic acid methyl ester","-","A55638","25489863","-","-","149.0 - 151.0","?C","150.0","Celsius"
"CCOC1=CC2=C(C=C1)N=C(S2)C1=CC=C(N)C=C1","-","EN300-05419","1924","4-(6-Ethoxy-benzothiazol-2-yl)-phenylamine","-","A55638","25489863","-","-","203.0 - 205.0","?C","204.0","Celsius"
"ClCC(=O)C1=CC=CN1","53391-62-1","EN300-05436","1925","2-Chloro-1-(1H-pyrrol-2-yl)-ethanone","-","A55638","25489863","-","-","114.0 - 116.0","?C","115.0","Celsius"
"CCC1=C2NC=C(C(=O)CCl)C2=CC=C1","-","EN300-05437","1926","2-Chloro-1-(7-ethyl-1H-indol-3-yl)-ethanone","-","A55638","25489863","-","-","165.0 - 167.0","?C","166.0","Celsius"
"OC(=O)CN1C(=O)C2CC=CCC2C1=O","-","EN300-05440","1927","(1,3-Dioxo-1,3,3a,4,7,7a-hexahydro-isoindol-2-yl)-acetic acid","-","A55638","25489863","-","-","83.0 - 85.0","?C","84.0","Celsius"
"CS(=O)(=O)NC1=CC(=CC=C1)C(O)=O","28547-13-9","EN300-05441","1928","3-Methanesulfonylamino-benzoic acid","-","A55638","25489863","-","-","230.0 - 232.0","?C","231.0","Celsius"
"CC(C)CCNC(N)=O","628-49-9","EN300-05443","1929","(3-Methyl-butyl)-urea","-","A55638","25489863","-","-","43.0 - 45.0","?C","44.0","Celsius"
"CCCCCC(=O)NC1=CC=C(C=C1)C(=O)CCl","-","EN300-05446","1930","Hexanoic acid [4-(2-chloro-acetyl)-phenyl]-amide","-","A55638","25489863","-","-","179.0 - 181.0","?C","180.0","Celsius"
"CCOC(=O)NC1=CC(O)=CC=C1","7159-96-8","EN300-05447","1931","(3-HYDROXY-PHENYL)-CARBAMIC ACID ETHYL ESTER","-","A55638","25489863","-","-","95.0 - 97.0","?C","96.0","Celsius"
"NC1=NC(=CS1)C1=CC2=C(OCCO2)C=C1","105362-06-9","EN300-05449","1932","4-(2,3-Dihydro-benzo[1,4]dioxin-6-yl)-thiazol-2-ylamine","-","A55638","25489863","-","-","180.0 - 182.0","?C","181.0","Celsius"
"CCOC1=C(CCl)C=C(C=C1)C(C)=O","78927-73-8","EN300-05452","1933","1-(3-Chloromethyl-4-ethoxy-phenyl)-ethanone","-","A55638","25489863","-","-","80.0 - 82.0","?C","81.0","Celsius"
"CC1=CC(=C(C)C=C1)C1=NNC(=O)C2=C1C=CC=C2","93517-76-1","EN300-05456","1934","4-(2,5-Dimethyl-phenyl)-2H-phthalazin-1-one","-","A55638","25489863","-","-","216.0 - 218.0","?C","217.0","Celsius"
"COC1=C(O)C(Br)=CC(=C1)C(O)=O","2973-76-4","EN300-05459","1935","3-Bromo-4-hydroxy-5-methoxy-benzoic acid","-","A55638","25489863","-","-","197.0 - 199.0","?C","198.0","Celsius"
"CC1=C(Cl)C=C2C(CCl)=CC(=O)OC2=C1","-","EN300-05466","1936","6-Chloro-4-chloromethyl-7-methyl-chromen-2-one","-","A55638","25489863","-","-","218.0 - 220.0","?C","219.0","Celsius"
"CCCN1C(=O)CC(=O)NC1=S","-","EN300-05471","1937","1-Propyl-2-thioxo-dihydro-pyrimidine-4,6-dione","-","A55638","25489863","-","-","127.0 - 129.0","?C","128.0","Celsius"
"CC1=CC(=CC=C1)N1N=NN=C1S","41401-38-1","EN300-05477","1938","1-m-Tolyl-1H-tetrazole-5-thiol","-","A55638","25489863","-","-","156.0 - 158.0","?C","157.0","Celsius"
"CC1(C)CC(C=CC2=NC=CC=C2)=CC2=C1SC(N)=C2C#N","-","EN300-05480","1939","2-Amino-7,7-dimethyl-5-(2-pyridin-2-yl-vinyl)-6,7-dihydro-benzo[b]thiophene-3-carbonitrile","-","A55638","25489863","-","-","200.0 - 202.0","?C","201.0","Celsius"
"CC1=NC2=C(C3=C(CCCCC3)S2)C(=O)N1N","120354-22-5","EN300-05483","1940","3-Amino-2-methyl-3,5,6,7,8,9-hexahydro-10-thia-1,3-diaza-benzo[a]azulen-4-one","-","A55638","25489863","-","-","199.0 - 201.0","?C","200.0","Celsius"
"CC1=C(C)C2=C(S1)N=C(C)N(N)C2=O","80381-63-1","EN300-05484","1941","3-Amino-2,5,6-trimethyl-3H-thieno[2,3-d]pyrimidin-4-one","-","A55638","25489863","-","-","204.0 - 206.0","?C","205.0","Celsius"
"CCCCN1C(CCC(O)=O)=NC2=C1C=CC(=C2)S(=O)(=O)N1CCOCC1","-","EN300-05489","1942","3-[1-Butyl-5-(morpholine-4-sulfonyl)-1H-benzoimidazol-2-yl]-propionic acid","-","A55638","25489863","-","-","136.0 - 138.0","?C","137.0","Celsius"
"OC(=O)CN1C(=O)C2=C(C=C(Cl)C(Cl)=C2)C1=O","111104-25-7","EN300-05498","1943","(5,6-Dichloro-1,3-dioxo-1,3-dihydro-isoindol-2-yl)-acetic acid","-","A55638","25489863","-","-","309.0 - 311.0","?C","310.0","Celsius"