"SMILES","CASRN","EXTERNALID","N","NAME","NAME","ARTICLEID","PUBMEDID","PAGE","TABLE","Melting Point {measured}","UNIT {Melting Point}","Melting Point {measured, converted}","UNIT {Melting Point}"
"COCCN1C(S)=NN=C1C1=CC=CC=C1","-","EN300-10495","4663","4-(2-methoxyethyl)-5-phenyl-4H-1,2,4-triazole-3-thiol","-","A55638","25489863","-","-","133.0 - 135.0","?C","134.0","Celsius"
"ClC1=NC=C(C=O)C=N1","-","EN300-104952","4664","2-chloropyrimidine-5-carbaldehyde","-","A55638","25489863","-","-","118.0 - 120.0","?C","119.0","Celsius"
"ClCC(=O)NC1=C(C(=O)NCC2=CC=CC=C2)C2=C(CCCC2)S1","-","EN300-10496","4665","N-benzyl-2-[(chloroacetyl)amino]-4,5,6,7-tetrahydro-1-benzothiophene-3-carboxamide","-","A55638","25489863","-","-","306.0 - 308.0","?C","307.0","Celsius"
"COC1=CC=C(CC(=O)NN)C=C1","57676-49-0","EN300-10498","4667","2-(4-methoxyphenyl)acetohydrazide","-","A55638","25489863","-","-","132.0 - 134.0","?C","133.0","Celsius"
"COC1=CC=CC(OC)=C1CO","-","EN300-104986","4668","(2,6-dimethoxyphenyl)methanol","-","A55638","25489863","-","-","53.0 - 55.0","?C","54.0","Celsius"
"CS(=O)(=O)C1=C(Cl)C=C(Cl)C(=C1)C(O)=O","-","EN300-104988","4669","2,4-dichloro-5-methanesulfonylbenzoic acid","-","A55638","25489863","-","-","210.0 - 212.0","?C","211.0","Celsius"
"OC(=O)CCC1=CC(=CC=C1)[N+]([O-])=O","-","EN300-104989","4670","3-(3-nitrophenyl)propanoic Acid","-","A55638","25489863","-","-","111.0 - 113.0","?C","112.0","Celsius"
"OC(=O)C1=CNN=C1C1=C(F)C=CC=C1","-","EN300-104990","4671","3-(2-fluorophenyl)-1H-pyrazole-4-carboxylic acid","-","A55638","25489863","-","-","288.0 - 290.0","?C","289.0","Celsius"
"OC(=O)C1=C(C=CC=C1)C(=O)NC1=CC=C(C=C1)C1=CC=CC=C1","-","EN300-104991","4672","2-[(4-phenylphenyl)carbamoyl]benzoic acid","-","A55638","25489863","-","-","292.0 - 294.0","?C","293.0","Celsius"
"FC1=C(C=CC=C1)C1=NNC=C1C=O","-","EN300-104994","4673","3-(2-fluorophenyl)-1H-pyrazole-4-carbaldehyde","-","A55638","25489863","-","-","114.0 - 116.0","?C","115.0","Celsius"
"OC(=O)C1=CNN=C1C1=CC(Cl)=CC=C1","-","EN300-104995","4674","3-(3-chlorophenyl)-1H-pyrazole-4-carboxylic acid","-","A55638","25489863","-","-","251.0 - 253.0","?C","252.0","Celsius"
"OC(=O)C1=CNN=C1C1=C(Cl)C=CC=C1","-","EN300-104996","4675","3-(2-chlorophenyl)-1H-pyrazole-4-carboxylic acid","-","A55638","25489863","-","-","255.0 - 257.0","?C","256.0","Celsius"
"ClC1=CC(=CC=C1)C1=NNC=C1C=O","-","EN300-104997","4676","3-(3-chlorophenyl)-1H-pyrazole-4-carbaldehyde","-","A55638","25489863","-","-","139.0 - 141.0","?C","140.0","Celsius"
"CCN(CC)S(=O)(=O)C1=CC(NC(=O)CCl)=C(OC)C=C1","-","EN300-10501","4678","2-chloro-N-{5-[(diethylamino)sulfonyl]-2-methoxyphenyl}acetamide","-","A55638","25489863","-","-","100.0 - 102.0","?C","101.0","Celsius"
"CC1=C(C(Cl)=NC(Cl)=N1)[N+]([O-])=O","-","EN300-105048","4679","2,4-dichloro-6-methyl-5-nitropyrimidine","-","A55638","25489863","-","-","52.0 - 54.0","?C","53.0","Celsius"
"CC(=O)NC1=NC(CCl)=CS1","7460-59-5","EN300-10505","4680","N-[4-(chloromethyl)-1,3-thiazol-2-yl]acetamide","-","A55638","25489863","-","-","159.0 - 161.0","?C","160.0","Celsius"
"CN(C)C1=CC(N)=C(C=C1)C#N","-","EN300-105079","4681","2-amino-4-(dimethylamino)benzonitrile","-","A55638","25489863","-","-","109.0 - 111.0","?C","110.0","Celsius"
"CN1C=C(C=C1C(O)=O)C(N)=O","-","EN300-105081","4683","4-carbamoyl-1-methyl-1H-pyrrole-2-carboxylic acid","-","A55638","25489863","-","-","223.0 - 225.0","?C","224.0","Celsius"
"CC(C)OC1=C(N)C=C(C=C1)C(O)=O","-","EN300-105082","4684","3-amino-4-(propan-2-yloxy)benzoic acid","-","A55638","25489863","-","-","115.0 - 117.0","?C","116.0","Celsius"
"[O-][N+](=O)C1=CC(Br)=C(Br)N=C1","-","EN300-105083","4685","2,3-dibromo-5-nitropyridine","-","A55638","25489863","-","-","76.0 - 78.0","?C","77.0","Celsius"
"CCOC1=C(Br)C=NC(Cl)=N1","-","EN300-105084","4686","5-bromo-2-chloro-4-ethoxypyrimidine","-","A55638","25489863","-","-","72.0 - 74.0","?C","73.0","Celsius"
"CC1=C(SC2=C1C(F)=CC=C2)S(Cl)(=O)=O","-","EN300-105086","4687","4-fluoro-3-methyl-1-benzothiophene-2-sulfonyl chloride","-","A55638","25489863","-","-","114.0 - 116.0","?C","115.0","Celsius"
"O=C1NC(CNCC2CCCO2)=NC2=C1C=CC=C2","-","EN300-10509","4688","2-{[(tetrahydrofuran-2-ylmethyl)amino]methyl}quinazolin-4(3H)-one","-","A55638","25489863","-","-","128.0 - 132.0","?C","130.0","Celsius"
"CC1=C(Cl)C(N)=CC=N1","-","EN300-105097","4689","3-chloro-2-methylpyridin-4-amine","-","A55638","25489863","-","-","110.0 - 112.0","?C","111.0","Celsius"
"SC1=NC2=C(SC=C2)C(=O)N1CC1=CC=CC=C1","-","EN300-10510","4690","3-benzyl-2-mercaptothieno[3,2-d]pyrimidin-4(3H)-one","-","A55638","25489863","-","-","249.0 - 251.0","?C","250.0","Celsius"
"CC1=CC(CC(O)=O)=NN1","-","EN300-105110","4691","2-(5-methyl-1H-pyrazol-3-yl)acetic acid","-","A55638","25489863","-","-","116.0 - 118.0","?C","117.0","Celsius"
"CCNC1=NCC(S1)C1=CC=CC=C1","-","EN300-105117","4692","N-ethyl-5-phenyl-4,5-dihydro-1,3-thiazol-2-amine","-","A55638","25489863","-","-","99.0 - 101.0","?C","100.0","Celsius"
"COC(=O)C1=CN=C(NCC=C)S1","-","EN300-105118","4693","methyl 2-(prop-2-en-1-ylamino)-1,3-thiazole-5-carboxylate","-","A55638","25489863","-","-","109.0 - 111.0","?C","110.0","Celsius"
"OC(=O)C(NC1=CC=CC=C1)C1=C(F)C=CC=C1","-","EN300-105122","4694","2-(2-fluorophenyl)-2-(phenylamino)acetic acid","-","A55638","25489863","-","-","115.0 - 117.0","?C","116.0","Celsius"
"OC(=O)C1=CN2C(C=C1)=NN=C2C1CC1","-","EN300-105124","4695","3-cyclopropyl-[1,2,4]triazolo[4,3-a]pyridine-6-carboxylic acid","-","A55638","25489863","-","-","290.0 - 292.0","?C","291.0","Celsius"
"CC1=NOC(N)=C1S(N)(=O)=O","-","EN300-105126","4697","5-amino-3-methyl-1,2-oxazole-4-sulfonamide","-","A55638","25489863","-","-","131.0 - 133.0","?C","132.0","Celsius"
"COC1=CC=C(C=C1)C1C(CCC(=O)N1C1=CC=C(OC)C=C1)C(O)=O","-","EN300-10513","4698","1,2-bis(4-methoxyphenyl)-6-oxopiperidine-3-carboxylic acid","-","A55638","25489863","-","-","178.0 - 180.0","?C","179.0","Celsius"
"OC1=C2C=C(Br)C=C(F)C2=NC=N1","-","EN300-105131","4699","6-bromo-8-fluoroquinazolin-4-ol","-","A55638","25489863","-","-","299.0 - 301.0","?C","300.0","Celsius"
"COC1=CC=C(C=C1)C1C(CCC(=O)N1C1=CC=C(C)C=C1)C(O)=O","-","EN300-10514","4702","2-(4-methoxyphenyl)-1-(4-methylphenyl)-6-oxopiperidine-3-carboxylic acid","-","A55638","25489863","-","-","201.0 - 203.0","?C","202.0","Celsius"
"NC1=NON=C1C1=CC=CC=C1","-","EN300-105144","4703","4-phenyl-1,2,5-oxadiazol-3-amine","-","A55638","25489863","-","-","96.0 - 98.0","?C","97.0","Celsius"
"NC1=NN(C(=O)C2=C(Br)C=CC=C2)C2=C1C=CC=C2","-","EN300-105147","4704","1-[(2-bromophenyl)carbonyl]-1H-indazol-3-amine","-","A55638","25489863","-","-","224.0 - 226.0","?C","225.0","Celsius"
"CC1=CC=C(C=C1)N1C(C(CC1=O)C(O)=O)C1=CC=CS1","-","EN300-10515","4705","1-(4-methylphenyl)-5-oxo-2-thien-2-ylpyrrolidine-3-carboxylic acid","-","A55638","25489863","-","-","175.0 - 177.0","?C","176.0","Celsius"
"CC1=CC=C(C=C1)N1C(C(CCC1=O)C(O)=O)C1=CC=CS1","-","EN300-10516","4707","1-(4-methylphenyl)-6-oxo-2-thien-2-ylpiperidine-3-carboxylic acid","-","A55638","25489863","-","-","249.0 - 251.0","?C","250.0","Celsius"
"NC1=C2C=C(Cl)C=CC2=NC(=C1)C1CC1","-","EN300-105169","4708","6-chloro-2-cyclopropylquinolin-4-amine","-","A55638","25489863","-","-","96.0 - 98.0","?C","97.0","Celsius"
"CC1=CC=C(C=C1)C1=NOC(CC#N)=N1","58599-00-1","EN300-10517","4709","[3-(4-methylphenyl)-1,2,4-oxadiazol-5-yl]acetonitrile","-","A55638","25489863","-","-","56.0 - 58.0","?C","57.0","Celsius"
"NC1=CC2=C(C=C1)N=C(S)O2","-","EN300-105182","4710","6-amino-1,3-benzoxazole-2-thiol","-","A55638","25489863","-","-","208.0 - 210.0","?C","209.0","Celsius"
"CCOC(=O)C1=C(C)N=C(S1)C(C)N","-","EN300-105183","4711","ethyl 2-(1-aminoethyl)-4-methyl-1,3-thiazole-5-carboxylate","-","A55638","25489863","-","-","53.0 - 55.0","?C","54.0","Celsius"
"NS(=O)(=O)C1=C2C=CC=CC2=C(Cl)C=C1","-","EN300-105184","4712","4-chloronaphthalene-1-sulfonamide","-","A55638","25489863","-","-","181.0 - 183.0","?C","182.0","Celsius"
"CSC1=C(N)N(N=C1)C1=CC=CC=C1","-","EN300-105207","4714","4-(methylsulfanyl)-1-phenyl-1H-pyrazol-5-amine","-","A55638","25489863","-","-","77.0 - 79.0","?C","78.0","Celsius"
"COC1=C(N)C=C(CCC(O)=O)C=C1","-","EN300-105209","4715","3-(3-amino-4-methoxyphenyl)propanoic acid","-","A55638","25489863","-","-","121.0 - 123.0","?C","122.0","Celsius"
"CC1(C)CCC2=C(C1)SC(N)=C2C(N)=O","-","EN300-105210","4716","2-amino-6,6-dimethyl-4,5,6,7-tetrahydro-1-benzothiophene-3-carboxamide","-","A55638","25489863","-","-","144.0 - 146.0","?C","145.0","Celsius"
"NS(=O)(=O)CC1=C(F)C=CC(Cl)=C1","-","EN300-105212","4717","(5-chloro-2-fluorophenyl)methanesulfonamide","-","A55638","25489863","-","-","186.0 - 188.0","?C","187.0","Celsius"
"C1CNC2=C(NC1)C=NC=C2","-","EN300-105222","4718","1H,2H,3H,4H,5H-pyrido[3,4-b][1,4]diazepine","-","A55638","25489863","-","-","121.0 - 123.0","?C","122.0","Celsius"
"ClCC(=O)N(CC1=CC=C(Cl)C=C1)C12CC3CC(CC(C3)C1)C2","-","EN300-10526","4720","N-1-adamantyl-2-chloro-N-(4-chlorobenzyl)acetamide","-","A55638","25489863","-","-","112.0 - 114.0","?C","113.0","Celsius"
"CC(=O)C1=C(N)C2=C(O1)C=CC=C2","49615-96-5","EN300-10527","4722","1-(3-amino-1-benzofuran-2-yl)ethanone","-","A55638","25489863","-","-","154.0 - 156.0","?C","155.0","Celsius"
"NC1=NC(=CO1)C1=C(Cl)C=CC=C1","-","EN300-105283","4723","4-(2-chlorophenyl)-1,3-oxazol-2-amine","-","A55638","25489863","-","-","137.0 - 139.0","?C","138.0","Celsius"
"[O-][N+](=O)C1=CC(Br)=C(CC#N)C=C1","-","EN300-105287","4725","2-(2-bromo-4-nitrophenyl)acetonitrile","-","A55638","25489863","-","-","66.0 - 68.0","?C","67.0","Celsius"
"OC(=O)CNC(=O)C1=C(C=CC=C1)C(F)(F)F","-","EN300-105289","4726","2-{[2-(trifluoromethyl)phenyl]formamido}acetic acid","-","A55638","25489863","-","-","152.0 - 154.0","?C","153.0","Celsius"
"CCC1=CC=C(C=C1)C1=NN(C=C1C(O)=O)C1=C(C)C=CC=C1","-","EN300-10529","4727","3-(4-ethylphenyl)-1-(2-methylphenyl)-1H-pyrazole-4-carboxylic acid","-","A55638","25489863","-","-","177.0 - 179.0","?C","178.0","Celsius"
"COC1=C(C(O)=O)C(F)=CC=C1F","-","EN300-105296","4730","3,6-difluoro-2-methoxybenzoic acid","-","A55638","25489863","-","-","82.0 - 84.0","?C","83.0","Celsius"
"COC(=O)C1=C(F)C(F)=CC(=C1)S(Cl)(=O)=O","-","EN300-105298","4731","methyl 5-(chlorosulfonyl)-2,3-difluorobenzoate","-","A55638","25489863","-","-","56.0 - 58.0","?C","57.0","Celsius"
"FC1=C(NC(=O)CCl)C=C(Cl)C=C1","-","EN300-10530","4732","2-chloro-N-(5-chloro-2-fluorophenyl)acetamide","-","A55638","25489863","-","-","98.0 - 102.0","?C","100.0","Celsius"
"NC1=NC=C(Br)C(=C1)C(O)=O","-","EN300-105307","4733","2-amino-5-bromopyridine-4-carboxylic acid","-","A55638","25489863","-","-","276.0 - 278.0","?C","277.0","Celsius"
"CCOC(=O)C1=C(C)OC(N)=C1C#N","14476-67-6","EN300-10531","4734","ethyl 5-amino-4-cyano-2-methyl-3-furoate","-","A55638","25489863","-","-","98.0 - 100.0","?C","99.0","Celsius"
"NC1=NC2=C(C=N1)C=C(C=C2)C#N","-","EN300-105310","4735","2-aminoquinazoline-6-carbonitrile","-","A55638","25489863","-","-","344.0 - 346.0","?C","345.0","Celsius"
"COC1=CC2=C(CCCC(=O)N2)C=C1","-","EN300-105312","4736","8-methoxy-2,3,4,5-tetrahydro-1H-1-benzazepin-2-one","-","A55638","25489863","-","-","127.0 - 129.0","?C","128.0","Celsius"
"OC1=C(I)C(Cl)=NC=N1","-","EN300-105313","4737","6-chloro-5-iodopyrimidin-4-ol","-","A55638","25489863","-","-","274.0 - 276.0","?C","275.0","Celsius"
"CC1=C(C)C=C(S1)C(Cl)=O","-","EN300-105315","4738","4,5-dimethylthiophene-2-carbonyl chloride","-","A55638","25489863","-","-","59.0 - 61.0","?C","60.0","Celsius"
"COC1=C(OC(C)C)C(Cl)=CC(C=CC(O)=O)=C1","-","EN300-10532","4740","(2E)-3-(3-chloro-4-isopropoxy-5-methoxyphenyl)acrylic acid","-","A55638","25489863","-","-","113.0 - 115.0","?C","114.0","Celsius"
"CN1C=C(CCC(O)=O)C2=C1C=CC=C2","-","EN300-105320","4741","3-(1-methyl-1H-indol-3-yl)propanoic acid","-","A55638","25489863","-","-","123.0 - 125.0","?C","124.0","Celsius"
"CCCCC(NC(=O)C(C)NC(C)=O)C(O)=O","-","EN300-105326","4742","2-(2-acetamidopropanamido)hexanoic acid","-","A55638","25489863","-","-","143.0 - 145.0","?C","144.0","Celsius"
"CC1=CC=C(C=C1)C1=CSC(S)=N1","2103-92-6","EN300-10533","4743","4-(4-methylphenyl)-1,3-thiazole-2-thiol","-","A55638","25489863","-","-","192.0 - 194.0","?C","193.0","Celsius"
"COC1=CC=C(C=C1)C(=O)NC1=CC=C(S1)C(O)=O","-","EN300-105331","4745","5-[(4-methoxybenzene)amido]thiophene-2-carboxylic acid","-","A55638","25489863","-","-","198.0 - 200.0","?C","199.0","Celsius"
"CCNC(=O)C1=CC(N)=CC=C1","81882-77-1","EN300-10534","4746","3-amino-N-ethylbenzamide","-","A55638","25489863","-","-","69.0 - 71.0","?C","70.0","Celsius"
"COC1=NC=C(Br)C=N1","-","EN300-105349","4747","5-bromo-2-methoxypyrimidine","-","A55638","25489863","-","-","55.0 - 60.0","?C","57.5","Celsius"
"CC(NC(=O)CCl)C1=CC(C)=C(C)C=C1","40023-05-0","EN300-10536","4748","2-chloro-N-[1-(3,4-dimethylphenyl)ethyl]acetamide","-","A55638","25489863","-","-","196.0 - 198.0","?C","197.0","Celsius"
"OC(=O)[C@@H](Cl)C1=CC=CC=C1","-","EN300-105371","4752","(2S)-2-chloro-2-phenylacetic acid","-","A55638","25489863","-","-","56.0 - 58.0","?C","57.0","Celsius"
"COC1=CC(=CC(OC)=C1)N1CCCNCC1","-","EN300-105376","4753","1-(3,5-dimethoxyphenyl)-1,4-diazepane","-","A55638","25489863","-","-","50.0 - 52.0","?C","51.0","Celsius"
"OC(C(O)=O)C1=CC(Cl)=CC(Cl)=C1","-","EN300-105383","4754","2-(3,5-dichlorophenyl)-2-hydroxyacetic acid","-","A55638","25489863","-","-","99.0 - 101.0","?C","100.0","Celsius"
"OC(=O)C1=C(C=CC(S)=C1)[N+]([O-])=O","-","EN300-105398","4757","2-nitro-5-sulfanylbenzoic acid","-","A55638","25489863","-","-","234.0 - 236.0","?C","235.0","Celsius"
"CC1NC(=O)C2=C(C=CC=C2)N(C)C1=O","-","EN300-105399","4758","1,3-dimethyl-2,3,4,5-tetrahydro-1H-1,4-benzodiazepine-2,5-dione","-","A55638","25489863","-","-","250.0 - 252.0","?C","251.0","Celsius"
"OC1=C(Br)C=C(C=N1)[N+]([O-])=O","-","EN300-105400","4759","3-bromo-5-nitropyridin-2-ol","-","A55638","25489863","-","-","209.0 - 211.0","?C","210.0","Celsius"
"CC1=CC2=C(NCC(=O)N2)N=C1","-","EN300-105403","4760","7-methyl-1H,2H,3H,4H-pyrido[2,3-b]pyrazin-2-one","-","A55638","25489863","-","-","249.0 - 251.0","?C","250.0","Celsius"
"COC1=CC(C=O)=CC(OC)=C1OC(F)F","-","EN300-10541","4762","4-(difluoromethoxy)-3,5-dimethoxybenzaldehyde","-","A55638","25489863","-","-","115.0 - 117.0","?C","116.0","Celsius"
"COC(=O)CCNC1=C(C=CC=N1)[N+]([O-])=O","-","EN300-105410","4763","methyl 3-[(3-nitropyridin-2-yl)amino]propanoate","-","A55638","25489863","-","-","65.0 - 67.0","?C","66.0","Celsius"
"NC1=NC2=C(N1)C=CC=N2","-","EN300-105412","4764","1H-imidazo[4,5-b]pyridin-2-amine","-","A55638","25489863","-","-","268.0 - 270.0","?C","269.0","Celsius"
"CC(CS(=O)(=O)C1=CC=C(F)C=C1)C(O)=O","-","EN300-105420","4766","3-[(4-fluorobenzene)sulfonyl]-2-methylpropanoic acid","-","A55638","25489863","-","-","128.0 - 130.0","?C","129.0","Celsius"
"CC(CSC1=CC=C(F)C=C1)C(O)=O","-","EN300-105421","4767","3-[(4-fluorophenyl)sulfanyl]-2-methylpropanoic acid","-","A55638","25489863","-","-","61.0 - 63.0","?C","62.0","Celsius"
"NC1=C2C=CC=CC2=NC=C1C#N","-","EN300-105423","4768","4-aminoquinoline-3-carbonitrile","-","A55638","25489863","-","-","274.0 - 276.0","?C","275.0","Celsius"
"CC(C)CN1N=C(C)CC1=O","-","EN300-10544","4770","2-isobutyl-5-methyl-2,4-dihydro-3H-pyrazol-3-one","-","A55638","25489863","-","-","124.0 - 126.0","?C","125.0","Celsius"
"NC(=O)C1=CC(N)=C(C=C1)S(N)(=O)=O","-","EN300-105460","4773","3-amino-4-sulfamoylbenzamide","-","A55638","25489863","-","-","202.0 - 204.0","?C","203.0","Celsius"
"NC1=C(C(Cl)=C(Br)C=C1)[N+]([O-])=O","-","EN300-105464","4774","4-bromo-3-chloro-2-nitroaniline","-","A55638","25489863","-","-","106.0 - 108.0","?C","107.0","Celsius"
"NC1=C(N=CN=C1Cl)N1CCCC1","-","EN300-105465","4775","4-chloro-6-(pyrrolidin-1-yl)pyrimidin-5-amine","-","A55638","25489863","-","-","103.0 - 105.0","?C","104.0","Celsius"
"NC1=CC(Br)=C(Br)N=C1","-","EN300-105475","4777","5,6-dibromopyridin-3-amine","-","A55638","25489863","-","-","106.0 - 108.0","?C","107.0","Celsius"
"CC(=O)NNC(=O)CCl","4002-21-5","EN300-10548","4778","N'-acetyl-2-chloroacetohydrazide","-","A55638","25489863","-","-","157.0 - 159.0","?C","158.0","Celsius"
"FC(F)(F)CN1C=C(C=O)C=N1","-","EN300-105517","4784","1-(2,2,2-trifluoroethyl)-1H-pyrazole-4-carbaldehyde","-","A55638","25489863","-","-","56.0 - 58.0","?C","57.0","Celsius"
"OC(=O)C1=CC=C(NS(=O)(=O)C2=CC(Cl)=C(F)C=C2)C=C1","-","EN300-10552","4785","4-{[(3-chloro-4-fluorophenyl)sulfonyl]amino}benzoic acid","-","A55638","25489863","-","-","240.0 - 242.0","?C","241.0","Celsius"
"CC(C)C(C(O)=O)C1=CC=C(F)C=C1","-","EN300-105520","4786","2-(4-fluorophenyl)-3-methylbutanoic acid","-","A55638","25489863","-","-","59.0 - 61.0","?C","60.0","Celsius"
"COC(=O)C=CN(C)C","-","EN300-105521","4787","methyl 3-(dimethylamino)prop-2-enoate","-","A55638","25489863","-","-","43.0 - 45.0","?C","44.0","Celsius"
"COC(=O)NC(=O)CCl","13558-70-8","EN300-10553","4789","methyl chloroacetylcarbamate","-","A55638","25489863","-","-","147.0 - 151.0","?C","149.0","Celsius"
"CC(C)(C)OC(=O)NCC(C)(C)C(O)=O","-","EN300-105538","4791","3-{[(tert-butoxy)carbonyl]amino}-2,2-dimethylpropanoic acid","-","A55638","25489863","-","-","116.0 - 118.0","?C","117.0","Celsius"
"CC(C)(C)OC(=O)NCC1(CCCC1)C(O)=O","-","EN300-105539","4792","1-({[(tert-butoxy)carbonyl]amino}methyl)cyclopentane-1-carboxylic acid","-","A55638","25489863","-","-","123.0 - 125.0","?C","124.0","Celsius"
"OC(=O)CCC1NC(=O)NC1=O","5624-26-0","EN300-10554","4793","3-(2,5-dioxoimidazolidin-4-yl)propanoic acid","-","A55638","25489863","-","-","169.0 - 171.0","?C","170.0","Celsius"
"COC(=O)C1(N)CCS(=O)(=O)CC1","-","EN300-105540","4794","methyl 4-aminotetrahydro-2H-thiopyran-4-carboxylate 1,1-dioxide","-","A55638","25489863","-","-","124.0 - 126.0","?C","125.0","Celsius"
"CC1(C)CCC(C#N)=C1N","-","EN300-105541","4795","2-amino-3,3-dimethylcyclopent-1-ene-1-carbonitrile","-","A55638","25489863","-","-","108.0 - 110.0","?C","109.0","Celsius"
"NS(=O)(=O)C1=C(F)C=CC(=C1)[N+]([O-])=O","-","EN300-105542","4796","2-fluoro-5-nitrobenzene-1-sulfonamide","-","A55638","25489863","-","-","139.0 - 141.0","?C","140.0","Celsius"
"OC(=O)CCCC1=CSC2=C1C=CC=C2","-","EN300-105544","4798","4-(1-benzothiophen-3-yl)butanoic acid","-","A55638","25489863","-","-","109.0 - 111.0","?C","110.0","Celsius"
"COC1=CC=C(NC2=C(N)C=CC=N2)C=C1","-","EN300-105545","4799","2-N-(4-methoxyphenyl)pyridine-2,3-diamine","-","A55638","25489863","-","-","164.0 - 166.0","?C","165.0","Celsius"
"NC(=O)C1=C(N)N(N=C1)C1=NC=CC=N1","-","EN300-105546","4800","5-amino-1-(pyrimidin-2-yl)-1H-pyrazole-4-carboxamide","-","A55638","25489863","-","-","256.0 - 258.0","?C","257.0","Celsius"
"COCCNS(=O)(=O)C1=CC(C(O)=O)=C(Br)C=C1","-","EN300-10555","4801","2-bromo-5-{[(2-methoxyethyl)amino]sulfonyl}benzoic acid","-","A55638","25489863","-","-","194.0 - 197.0","?C","196.0","Celsius"
"CC(O)C(=O)NC1=CC=CC=C1","-","EN300-105550","4802","2-hydroxy-N-phenylpropanamide","-","A55638","25489863","-","-","52.0 - 54.0","?C","53.0","Celsius"
"COC1=CC2=C(CCCCN2)C=C1","-","EN300-105553","4804","8-methoxy-2,3,4,5-tetrahydro-1H-1-benzazepine","-","A55638","25489863","-","-","46.0 - 48.0","?C","47.0","Celsius"
"CSC1=C(C=O)C=CC(Br)=C1","-","EN300-105556","4807","4-bromo-2-(methylsulfanyl)benzaldehyde","-","A55638","25489863","-","-","81.0 - 83.0","?C","82.0","Celsius"
"NC1=CC(Br)=C(S)C=C1","-","EN300-105557","4808","4-amino-2-bromobenzene-1-thiol","-","A55638","25489863","-","-","94.0 - 96.0","?C","95.0","Celsius"
"CC(C)(CC1=CC=CC=C1)C#N","-","EN300-105558","4809","2,2-dimethyl-3-phenylpropanenitrile","-","A55638","25489863","-","-","47.0 - 49.0","?C","48.0","Celsius"
"O=C1NC=C(C=C1)S(=O)(=O)N1CCCCC1","-","EN300-105559","4810","5-(piperidine-1-sulfonyl)-1,2-dihydropyridin-2-one","-","A55638","25489863","-","-","239.0 - 241.0","?C","240.0","Celsius"
"COC1=C(C=C(C=C1)C(O)=O)S(=O)(=O)NC(C)C","-","EN300-10556","4811","3-[(isopropylamino)sulfonyl]-4-methoxybenzoic acid","-","A55638","25489863","-","-","194.0 - 197.0","?C","196.0","Celsius"