"SMILES","CASRN","EXTERNALID","N","NAME","NAME","ARTICLEID","PUBMEDID","PAGE","TABLE","Melting Point {measured}","UNIT {Melting Point}","Melting Point {measured, converted}","UNIT {Melting Point}"
"CCN1CCN(CC1)S(=O)(=O)C1=CC(C(O)=O)=C(Cl)C=C1","-","EN300-00682","327","2-Chloro-5-(4-ethyl-piperazine-1-sulfonyl)-benzoic acid","-","A55638","25489863","-","-","189.0 - 191.0","?C","190.0","Celsius"
"CC(C)CNS(=O)(=O)C1=C(Cl)C=C(Cl)C(=C1)C(O)=O","-","EN300-00685","328","2,4-Dichloro-5-isobutylsulfamoyl-benzoic acid","-","A55638","25489863","-","-","179.0 - 181.0","?C","180.0","Celsius"
"OC(=O)C1=C2C=CC=CC2=NC(=C1)C1=CC=NC=C1","14228-23-0","EN300-00687","329","2-Pyridin-4-yl-quinoline-4-carboxylic acid","-","A55638","25489863","-","-","308.0 - 310.0","?C","309.0","Celsius"
"OC(=O)C1=C2C=CC=CC2=NC(=C1)C1=NC=CC=C1","57882-27-6","EN300-00688","330","2-Pyridin-2-yl-quinoline-4-carboxylic acid","-","A55638","25489863","-","-","297.0 - 299.0","?C","298.0","Celsius"
"OC(=O)C1=C2C=CC=CC2=NC(=C1)C1=CC=C(Cl)C=C1","5466-31-9","EN300-00689","331","2-(4-Chloro-phenyl)-quinoline-4-carboxylic acid","-","A55638","25489863","-","-","244.0 - 246.0","?C","245.0","Celsius"
"OC(=O)C1=C2C=CC=CC2=NC(=C1)C1=CC=C(F)C=C1","441-28-1","EN300-00690","332","2-(4-Fluoro-phenyl)-quinoline-4-carboxylic acid","-","A55638","25489863","-","-","193.0 - 197.0","?C","195.0","Celsius"
"OC(=O)C1=C2C=CC=CC2=NC(=C1)C1=C(Cl)C=CC=C1","20389-09-7","EN300-00691","333","2-(2-Chloro-phenyl)-quinoline-4-carboxylic acid","-","A55638","25489863","-","-","273.0 - 275.0","?C","274.0","Celsius"
"COC1=CC(=CC(OC)=C1OC)C1=NC2=C(C=CC=C2)C(=C1)C(O)=O","-","EN300-00692","334","2-(3,4,5-Trimethoxy-phenyl)-quinoline-4-carboxylic acid","-","A55638","25489863","-","-","195.0 - 197.0","?C","196.0","Celsius"
"OC(=O)C1=C2C=CC=CC2=NC(=C1)C1=CN=CC=C1","7482-91-9","EN300-00693","335","2-Pyridin-3-yl-quinoline-4-carboxylic acid","-","A55638","25489863","-","-","323.0 - 325.0","?C","324.0","Celsius"
"OC(=O)C1=C2C=CC=CC2=NC(=C1)C1=CC=CS1","31792-47-9","EN300-00694","336","2-Thiophen-2-yl-quinoline-4-carboxylic acid","-","A55638","25489863","-","-","199.0 - 201.0","?C","200.0","Celsius"
"CC1=CC=C(C=C1)S(=O)(=O)N1CC2=C(CC1C(O)=O)C=CC=C2","-","EN300-00697","337","2-(Toluene-4-sulfonyl)-1,2,3,4-tetrahydro-isoquinoline-3-carboxylic acid","-","A55638","25489863","-","-","143.0 - 145.0","?C","144.0","Celsius"
"OC(=O)C1=CC=C(S1)C1=NC2=C(S1)C=CC=C2","-","EN300-00707","338","5-Benzothiazol-2-yl-thiophene-2-carboxylic acid","-","A55638","25489863","-","-","254.0 - 256.0","?C","255.0","Celsius"
"OC(=O)C1=C(Cl)N=C2SC=CN12","24918-20-5","EN300-00708","339","6-Chloro-imidazo[2,1-b]thiazole-5-carboxylic acid","-","A55638","25489863","-","-","181.0 - 183.0","?C","182.0","Celsius"
"OC(=O)C1=CC=C(S1)[N+]([O-])=O","6317-37-9","EN300-00713","342","5-Nitro-thiophene-2-carboxylic acid","-","A55638","25489863","-","-","143.0 - 151.0","?C","147.0","Celsius"
"OC(=O)C1=CC2=C(CCC2)S1","40133-06-0","EN300-00715","343","5,6-Dihydro-4H-cyclopenta[b]thiophene-2-carboxylic acid","-","A55638","25489863","-","-","199.0 - 201.0","?C","200.0","Celsius"
"ClC(=O)C1=CC=C(S1)C(Cl)=O","3857-36-1","EN300-00717","344","Thiophene-2,5-dicarbonyl dichloride","-","A55638","25489863","-","-","337.0 - 339.0","?C","338.0","Celsius"
"OC(=O)C1=CC2=C(O1)C(Br)=CC(Br)=C2","90415-17-1","EN300-00718","345","5,7-Dibromo-benzofuran-2-carboxylic acid","-","A55638","25489863","-","-","279.0 - 281.0","?C","280.0","Celsius"
"OC(=O)C1=CN(N=C1C1=CC=CC=C1)C1=CC=CC=C1","77169-12-1","EN300-00720","346","1,3-diphenyl-1H-pyrazole-4-carboxylic acid","-","A55638","25489863","-","-","202.0 - 204.0","?C","203.0","Celsius"
"OC(=O)C1=CN(N=C1C1=CC=C(Cl)C=C1)C1=CC=CC=C1","372107-14-7","EN300-00721","347","3-(4-Chloro-phenyl)-1-phenyl-1H-pyrazole-4-carboxylic acid","-","A55638","25489863","-","-","246.0 - 248.0","?C","247.0","Celsius"
"OC(=O)C1=CN(N=C1C1=CC=CS1)C1=CC=CC=C1","-","EN300-00722","348","1-Phenyl-3-thiophen-2-yl-1H-pyrazole-4-carboxylic acid","-","A55638","25489863","-","-","197.0 - 199.0","?C","198.0","Celsius"
"OC(=O)C1=CN(N=C1C1=CN=CC=C1)C1=CC=CC=C1","372107-42-1","EN300-00723","349","1-Phenyl-3-pyridin-3-yl-1H-pyrazole-4-carboxylic acid","-","A55638","25489863","-","-","238.0 - 240.0","?C","239.0","Celsius"
"OC(=O)CCCCCN1C(=O)CSC1=S","4649-06-3","EN300-00724","350","6-(4-Oxo-2-thioxo-thiazolidin-3-yl)-hexanoic acid","-","A55638","25489863","-","-","85.0 - 87.0","?C","86.0","Celsius"
"OC(=O)CCN1C(=S)S\C(=C/C2=CC=C(F)C=C2)C1=O","-","EN300-00759","351","3-[5-(4-Fluoro-benzylidene)-4-oxo-2-thioxo-thiazolidin-3-yl]-propionic acid","-","A55638","25489863","-","-","135.0 - 137.0","?C","136.0","Celsius"
"OC(=O)C1=NNC(=O)C2=C1C=CC=C2","3260-44-4","EN300-00787","352","4-Oxo-3,4-dihydro-phthalazine-1-carboxylic acid","-","A55638","25489863","-","-","230.0 - 232.0","?C","231.0","Celsius"
"OC(=O)CN1N=NC2=C1C=CC=C2","4144-64-3","EN300-00788","353","Benzotriazol-1-yl-acetic acid","-","A55638","25489863","-","-","210.0 - 212.0","?C","211.0","Celsius"
"OC(=O)C1=C2C=CC=CC2=NC(=C1)C1=CC=C(Br)C=C1","103914-52-9","EN300-00789","354","2-(4-Bromo-phenyl)-quinoline-4-carboxylic acid","-","A55638","25489863","-","-","241.0 - 243.0","?C","242.0","Celsius"
"CC1=C(C(O)=O)C2=C(C=CC=C2)N=C1C1=CC=CC=C1","43071-45-0","EN300-00791","355","3-Methyl-2-phenyl-quinoline-4-carboxylic acid","-","A55638","25489863","-","-","235.0 - 237.0","?C","236.0","Celsius"
"CC1=CC=C(C=C1)C1=NN(C=C1C(O)=O)C1=CC=CC=C1","380910-52-1","EN300-00792","356","1-Phenyl-3-p-tolyl-1H-pyrazole-4-carboxylic acid","-","A55638","25489863","-","-","229.0 - 231.0","?C","230.0","Celsius"
"COC1=CC=C(C=C1)C1=NN(C=C1C(O)=O)C1=CC=CC=C1","372107-36-3","EN300-00793","357","3-(4-Methoxy-phenyl)-1-phenyl-1H-pyrazole-4-carboxylic acid","-","A55638","25489863","-","-","244.0 - 246.0","?C","245.0","Celsius"
"COC1=CC=C(C=C1)C1=NN(C=C1C=CC(O)=O)C1=CC=CC=C1","108446-75-9","EN300-00794","358","3-[3-(4-Methoxy-phenyl)-1-phenyl-1H-pyrazol-4-yl]-acrylic acid","-","A55638","25489863","-","-","238.0 - 240.0","?C","239.0","Celsius"
"OC(=O)C=CC1=CN(N=C1C1=CC=CS1)C1=CC=CC=C1","-","EN300-00796","359","3-(1-Phenyl-3-thiophen-2-yl-1H-pyrazol-4-yl)-acrylic acid","-","A55638","25489863","-","-","224.0 - 226.0","?C","225.0","Celsius"
"OC(=O)C=CC1=CN(N=C1C1=CC=CC=C1)C1=CC=CC=C1","73221-47-3","EN300-00797","360","3-(1,3-Diphenyl-1H-pyrazol-4-yl)-acrylic acid","-","A55638","25489863","-","-","207.0 - 209.0","?C","208.0","Celsius"
"CC1=CC=C(C=C1)C1=NN(C=C1C=CC(O)=O)C1=CC=CC=C1","108446-74-8","EN300-00798","361","3-(1-Phenyl-3-p-tolyl-1H-pyrazol-4-yl)-acrylic acid","-","A55638","25489863","-","-","220.0 - 222.0","?C","221.0","Celsius"
"OC(=O)C1CCCN1C(=O)C1=CC=CS1","117918-58-8","EN300-00799","362","1-(Thiophene-2-carbonyl)-pyrrolidine-2-carboxylic acid","-","A55638","25489863","-","-","145.0 - 147.0","?C","146.0","Celsius"
"COC1=CC2=C(C=C1)C=C(C=C2)C1=NC2=C(C=CC=C2)C(=C1)C(O)=O","-","EN300-00800","363","2-(6-Methoxy-naphthalen-2-yl)-quinoline-4-carboxylic acid","-","A55638","25489863","-","-","258.0 - 260.0","?C","259.0","Celsius"
"OC(=O)C1=C2C=CC=CC2=NC(=C1)C1=CC=C(C=C1)C1=CC=CC=C1","78660-92-1","EN300-00801","364","2-biphenyl-4-yl-quinoline-4-carboxylic acid","-","A55638","25489863","-","-","289.0 - 291.0","?C","290.0","Celsius"
"CC1=CC=C(C=C1)C1=NC2=C(C=CC=C2)C(=C1)C(O)=O","20389-05-3","EN300-00802","365","2-p-Tolyl-quinoline-4-carboxylic acid","-","A55638","25489863","-","-","180.0 - 184.0","?C","182.0","Celsius"
"OC(=O)C1=C2C=CC=CC2=NC(=C1)C1=CC=CO1","20146-25-2","EN300-00804","366","2-Furan-2-yl-quinoline-4-carboxylic acid","-","A55638","25489863","-","-","209.0 - 211.0","?C","210.0","Celsius"
"OC(=O)C1=C2C=CC=CC2=NC(=C1)C1=C2C=CC=CC2=CC=C1","6265-23-2","EN300-00808","367","2-Naphthalen-1-yl-quinoline-4-carboxylic acid","-","A55638","25489863","-","-","225.0 - 227.0","?C","226.0","Celsius"
"CC1=NN(C2=C1C=C(S2)C(O)=O)C1=CC=C(F)C=C1","-","EN300-00810","369","1-(4-Fluoro-phenyl)-3-methyl-1H-thieno[2,3-c]pyrazole-5-carboxylic acid","-","A55638","25489863","-","-","205.0 - 210.0","?C","208.0","Celsius"
"COC1=C(OC)C=C(C=C1)C1=NC2=C(C=CC=C2)C(=C1)C(O)=O","133676-16-1","EN300-00813","370","2-(3,4-Dimethoxy-phenyl)-quinoline-4-carboxylic acid","-","A55638","25489863","-","-","234.0 - 236.0","?C","235.0","Celsius"
"OC(=O)C1=C2C=CC=CC2=NC(=C1)C1=CC(Br)=CC=C1","298230-83-8","EN300-00817","371","2-(3-Bromo-phenyl)-quinoline-4-carboxylic acid","-","A55638","25489863","-","-","215.0 - 217.0","?C","216.0","Celsius"
"OC(=O)C1=C(Cl)C2=C(S1)C=C(Cl)C=C2Cl","34576-90-4","EN300-00818","372","3,4,6-Trichloro-benzo[b]thiophene-2-carboxylic acid","-","A55638","25489863","-","-","248.0 - 250.0","?C","249.0","Celsius"
"OC(=O)CCC1=NC2=C(S1)C=CC=C2","29198-86-5","EN300-00819","373","3-Benzothiazol-2-yl-propionic acid","-","A55638","25489863","-","-","97.0 - 99.0","?C","98.0","Celsius"
"COC1=CC(=CC=C1)C1=NN(C=C1C(O)=O)C1=CC=CC=C1","-","EN300-00820","374","3-(3-Methoxy-phenyl)-1-phenyl-1H-pyrazole-4-carboxylic acid","-","A55638","25489863","-","-","156.0 - 158.0","?C","157.0","Celsius"
"OC(=O)C=CC1=CN(N=C1C1=CC(=CC=C1)[N+]([O-])=O)C1=CC=CC=C1","-","EN300-00821","375","3-[3-(3-Nitro-phenyl)-1-phenyl-1H-pyrazol-4-yl]-acrylic acid","-","A55638","25489863","-","-","248.0 - 250.0","?C","249.0","Celsius"
"OC(=O)C=CC1=CN(N=C1C1=CC=C(F)C=C1)C1=CC=CC=C1","108446-72-6","EN300-00822","376","3-[3-(4-Fluoro-phenyl)-1-phenyl-1H-pyrazol-4-yl]-acrylic acid","-","A55638","25489863","-","-","229.0 - 231.0","?C","230.0","Celsius"
"OC(=O)C1=C2C=CC=CC2=NC(O)=C1","15733-89-8","EN300-00825","378","2-Hydroxy-quinoline-4-carboxylic acid","-","A55638","25489863","-","-","350.0 - 352.0","?C","351.0","Celsius"
"OC(=O)C1=CC2=C(CCCCC2)S1","40133-08-2","EN300-00826","379","5,6,7,8-Tetrahydro-4H-cyclohepta[b]thiophene-2-carboxylic acid","-","A55638","25489863","-","-","162.0 - 166.0","?C","164.0","Celsius"
"OC(=O)C1=CC2=C(S1)C1=C(CC2)C=CC=C1","29179-41-7","EN300-00827","380","4,5-Dihydro-naphtho[1,2-b]thiophene-2-carboxylic acid","-","A55638","25489863","-","-","212.0 - 214.0","?C","213.0","Celsius"
"OC(=O)C1=CN2C=CC=CC2=N1","64951-08-2","EN300-00834","381","Imidazo[1,2-a]pyridine-2-carboxylic acid","-","A55638","25489863","-","-","242.0 - 244.0","?C","243.0","Celsius"
"COC1=CC=C(C=C1)C1=NN(C(=C1)C(O)=O)C1=CC=CC=C1","-","EN300-00835","382","5-(4-Methoxy-phenyl)-2-phenyl-2H-pyrazole-3-carboxylic acid","-","A55638","25489863","-","-","190.0 - 192.0","?C","191.0","Celsius"
"OC(=O)CCC1=NNC(S)=NC1=O","7338-78-5","EN300-00837","383","3-(5-Oxo-3-thioxo-2,3,4,5-tetrahydro-[1,2,4]triazin-6-yl)-propionic acid","-","A55638","25489863","-","-","162.0 - 164.0","?C","163.0","Celsius"
"CN1CCC2=C(C1)C(C(O)=O)=C1C=CC=CC1=N2","-","EN300-00839","384","2-Methyl-1,2,3,4-tetrahydro-benzo[b][1,6]naphthyridine-10-carboxylic acid","-","A55638","25489863","-","-","254.0 - 256.0","?C","255.0","Celsius"
"COC1=C(OC)C=C(C=C2CCCC3=C2N=C2C=CC=CC2=C3C(O)=O)C=C1","-","EN300-00840","385","4-(3,4-Dimethoxy-benzylidene)-1,2,3,4-tetrahydro-acridine-9-carboxylic acid","-","A55638","25489863","-","-","110.0 - 114.0","?C","112.0","Celsius"
"OC(=O)C1=C2C=CC=CC2=NC2=C1CCC2=CC1=CC=CC=C1","-","EN300-00841","386","3-Benzylidene-2,3-dihydro-1H-cyclopenta[b]quinoline-9-carboxylic acid","-","A55638","25489863","-","-","279.0 - 281.0","?C","280.0","Celsius"
"CC1(C)CC2=C(O1)C(OCC(O)=O)=CC=C2","-","EN300-00843","387","(2,2-Dimethyl-2,3-dihydro-benzofuran-7-yloxy)-acetic acid","-","A55638","25489863","-","-","111.0 - 113.0","?C","112.0","Celsius"
"OC(=O)C1=C2C=CC=CC2=NC(=C1)C1=CC=C(Cl)S1","329222-93-7","EN300-00851","388","2-(5-Chloro-thiophen-2-yl)-quinoline-4-carboxylic acid","-","A55638","25489863","-","-","242.0 - 244.0","?C","243.0","Celsius"
"COC1=CC=C(C=C2CCCC3=C2N=C2C=CC=CC2=C3C(O)=O)C=C1","-","EN300-00852","389","4-(4-Methoxy-benzylidene)-1,2,3,4-tetrahydro-acridine-9-carboxylic acid","-","A55638","25489863","-","-","157.0 - 159.0","?C","158.0","Celsius"
"OC(=O)C1=C2C=CC=CC2=NC2=C1CCCC2=CC1=C(Cl)C(Cl)=CC=C1","-","EN300-00854","390","4-(2,3-Dichloro-benzylidene)-1,2,3,4-tetrahydro-acridine-9-carboxylic acid","-","A55638","25489863","-","-","294.0 - 296.0","?C","295.0","Celsius"
"OC(=O)C1=C2C=CC=CC2=NC2=C1CCCC2=CC1=CC(=CC=C1)[N+]([O-])=O","-","EN300-00855","391","4-(3-Nitro-benzylidene)-1,2,3,4-tetrahydro-acridine-9-carboxylic acid","-","A55638","25489863","-","-","299.0 - 301.0","?C","300.0","Celsius"
"OC(=O)C1=C2C=CC=CC2=NC2=C1CCCC2=CC1=CC=CS1","-","EN300-00856","392","4-Thiophen-2-ylmethylene-1,2,3,4-tetrahydro-acridine-9-carboxylic acid","-","A55638","25489863","-","-","176.0 - 178.0","?C","177.0","Celsius"
"OC(=O)CN1C=C(C=CC1=O)C(F)(F)F","-","EN300-00862","393","(2-Oxo-5-trifluoromethyl-2H-pyridin-1-yl)-acetic acid","-","A55638","25489863","-","-","218.0 - 220.0","?C","219.0","Celsius"
"OC(=O)C1=CSC2=C1CCCC2","19156-54-8","EN300-00863","394","4,5,6,7-Tetrahydro-benzo[b]thiophene-3-carboxylic acid","-","A55638","25489863","-","-","159.0 - 161.0","?C","160.0","Celsius"
"CC1CCC2=C(C1)SC=C2C(O)=O","438213-69-5","EN300-00864","395","6-Methyl-4,5,6,7-tetrahydro-benzo[b]thiophene-3-carboxylic acid","-","A55638","25489863","-","-","178.0 - 180.0","?C","179.0","Celsius"
"CC1=CC(C(O)=O)=C(C)N1C1=CC=CC=C1","3807-56-5","EN300-00866","396","2,5-Dimethyl-1-phenyl-1H-pyrrole-3-carboxylic acid","-","A55638","25489863","-","-","213.0 - 215.0","?C","214.0","Celsius"
"CC1=CC(C(O)=O)=C(C)N1C1=CC=C(F)C=C1","519151-74-7","EN300-00867","397","1-(4-Fluoro-phenyl)-2,5-dimethyl-1H-pyrrole-3-carboxylic acid","-","A55638","25489863","-","-","232.0 - 234.0","?C","233.0","Celsius"
"OC(=O)C1=C2C=CC=CC2=NC(=C1)C1=CC=C(OC(F)F)C=C1","-","EN300-00868","398","2-(4-Difluoromethoxy-phenyl)-quinoline-4-carboxylic acid","-","A55638","25489863","-","-","224.0 - 226.0","?C","225.0","Celsius"
"OC(=O)CC1=CN2C=CSC2=N1","57332-75-9","EN300-00869","399","Imidazo[2,1-b]thiazol-6-yl-acetic acid","-","A55638","25489863","-","-","180.0 - 184.0","?C","182.0","Celsius"
"OC(=O)C1=NC=CC(Cl)=C1","5470-22-4","EN300-00872","400","4-Chloro-pyridine-2-carboxylic acid","-","A55638","25489863","-","-","170.0 - 174.0","?C","172.0","Celsius"
"OC(=O)C1=CC2=C(C=C1)C(=O)N1CCCCCC1=N2","108561-87-1","EN300-00873","401","12-Oxo-6,7,8,9,10,12-hexahydro-azepino[2,1-b]quinazoline-3-carboxylic acid","-","A55638","25489863","-","-","276.0 - 278.0","?C","277.0","Celsius"
"ClC(=O)C1=C2C=CC=CC2=NC(Cl)=C1","2388-32-1","EN300-00880","402","2-Chloro-quinoline-4-carbonyl chloride","-","A55638","25489863","-","-","85.0 - 87.0","?C","86.0","Celsius"
"OC(=O)C1=C2C=CC=CC2=NC2=C1CCC2=CC1=CC(Cl)=C(Cl)C=C1","-","EN300-00885","404","3-(3,4-Dichloro-benzylidene)-2,3-dihydro-1H-cyclopenta[b]quinoline-9-carboxylic acid","-","A55638","25489863","-","-","184.0 - 186.0","?C","185.0","Celsius"
"COC1=CC(C=C2CCC3=C(C(O)=O)C4=C(C=CC=C4)N=C23)=CC(OC)=C1OC","-","EN300-00887","405","3-(3,4,5-Trimethoxy-benzylidene)-2,3-dihydro-1H-cyclopenta[b]quinoline-9-carboxylic acid","-","A55638","25489863","-","-","246.0 - 248.0","?C","247.0","Celsius"
"COC1=CC(C=C2CCCC3=C2N=C2C=CC=CC2=C3C(O)=O)=CC(OC)=C1OC","-","EN300-00890","406","4-(3,4,5-Trimethoxy-benzylidene)-1,2,3,4-tetrahydro-acridine-9-carboxylic acid","-","A55638","25489863","-","-","249.0 - 251.0","?C","250.0","Celsius"
"OC(=O)C1=C(C=CC=C1)C1=NC2=C(S1)C=CC=C2","6340-29-0","EN300-00898","407","2-Benzothiazol-2-yl-benzoic acid","-","A55638","25489863","-","-","190.0 - 192.0","?C","191.0","Celsius"
"CC1=CC=NC2=NC(=NN12)C(O)=O","-","EN300-00903","408","7-Methyl-[1,2,4]triazolo[1,5-a]pyrimidine-2-carboxylic acid","-","A55638","25489863","-","-","240.0 - 242.0","?C","241.0","Celsius"
"CC1=NC2=NC(=NN2C(C)=C1)C(O)=O","842972-32-1","EN300-00904","409","5,7-Dimethyl-[1,2,4]triazolo[1,5-a]pyrimidine-2-carboxylic acid","-","A55638","25489863","-","-","178.0 - 180.0","?C","179.0","Celsius"
"OC(=O)C1=C2C=CC=CC2=NC2=C1CCCC2=CC1=C(Cl)C=CC=C1","-","EN300-00910","410","4-(2-Chloro-benzylidene)-1,2,3,4-tetrahydro-acridine-9-carboxylic acid","-","A55638","25489863","-","-","98.0 - 100.0","?C","99.0","Celsius"
"COC1=CC(C=C2CC(CC3=C2N=C2C=CC=CC2=C3C(O)=O)C(C)(C)C)=CC(OC)=C1OC","-","EN300-00913","411","2-tert-Butyl-4-(3,4,5-trimethoxy-benzylidene)-1,2,3,4-tetrahydro-acridine-9-carboxylic acid","-","A55638","25489863","-","-","220.0 - 222.0","?C","221.0","Celsius"
"CCN1CCC2=C(C1)C(C(O)=O)=C1C=CC=CC1=N2","519150-65-3","EN300-00914","412","2-Ethyl-1,2,3,4-tetrahydro-benzo[b][1,6]naphthyridine-10-carboxylic acid","-","A55638","25489863","-","-","278.0 - 280.0","?C","279.0","Celsius"
"OC(=O)C1=NC(Cl)=NC(Cl)=C1","16492-28-7","EN300-00915","413","2,6-Dichloro-pyrimidine-4-carboxylic acid","-","A55638","25489863","-","-","114.0 - 116.0","?C","115.0","Celsius"
"OC(=O)CCCC1=NC2=C(S1)C=CC=C2","41387-91-1","EN300-00916","414","4-Benzothiazol-2-yl-butyric acid","-","A55638","25489863","-","-","148.0 - 150.0","?C","149.0","Celsius"
"COC(=O)C1=C(C)NC(C)=C(C1C(O)=O)C(=O)OC","-","EN300-00919","415","2,6-Dimethyl-1,4-dihydro-pyridine-3,4,5-tricarboxylic acid 3,5-dimethyl ester","-","A55638","25489863","-","-","128.0 - 130.0","?C","129.0","Celsius"
"CCOC(=O)C1=C(C)NC(C(O)=O)=C1C","5442-91-1","EN300-00922","416","3,5-Dimethyl-1H-pyrrole-2,4-dicarboxylic acid 4-ethyl ester","-","A55638","25489863","-","-","204.0 - 206.0","?C","205.0","Celsius"
"CC(=O)NC1=C(C(O)=O)C(C)=C(C)S1","13130-40-0","EN300-00926","418","2-Acetylamino-4,5-dimethyl-thiophene-3-carboxylic acid","-","A55638","25489863","-","-","217.0 - 219.0","?C","218.0","Celsius"
"OC(=O)CCC1=NC2=C(C=CC=C2)N1C1=CC=CC=C1","-","EN300-00927","419","3-(1-Phenyl-1H-benzoimidazol-2-yl)-propionic acid","-","A55638","25489863","-","-","232.0 - 234.0","?C","233.0","Celsius"
"COC1=C(Cl)C2=C(C=C1)C(Cl)=C(S2)C(O)=O","34576-89-1","EN300-00929","420","3,7-Dichloro-6-methoxy-benzo[b]thiophene-2-carboxylic acid","-","A55638","25489863","-","-","105.0 - 109.0","?C","107.0","Celsius"
"OC(=O)C1=NN(CC2=CC=CC=C2)C(=O)C2=C1C=CC=C2","16015-49-9","EN300-00930","421","3-Benzyl-4-oxo-3,4-dihydro-phthalazine-1-carboxylic acid","-","A55638","25489863","-","-","199.0 - 201.0","?C","200.0","Celsius"
"OC(=O)C1=NC2=C3C(N1)=CC=CC3=CC=C2","146603-28-3","EN300-00932","423","1H-Perimidine-2-carboxylic acid","-","A55638","25489863","-","-","210.0 - 212.0","?C","211.0","Celsius"
"CC(=O)NC1=C(C(O)=O)C2=C(CCCC2)S1","13130-43-3","EN300-00944","424","2-Acetylamino-4,5,6,7-tetrahydro-benzo[b]thiophene-3-carboxylic acid","-","A55638","25489863","-","-","210.0 - 212.0","?C","211.0","Celsius"
"CC1=CC(C(O)=O)=C(C)N1C1=CC(C)=CC=C1","-","EN300-00945","425","2,5-Dimethyl-1-m-tolyl-1H-pyrrole-3-carboxylic acid","-","A55638","25489863","-","-","194.0 - 196.0","?C","195.0","Celsius"
"CC1=NN(C2=C1C=C(C=O)C(Cl)=N2)C1=CC=CC=C1","81933-75-7","EN300-00957","427","6-Chloro-3-methyl-1-phenyl-1H-pyrazolo[3,4-b]pyridine-5-carbaldehyde","-","A55638","25489863","-","-","189.0 - 191.0","?C","190.0","Celsius"
"O=CC1=C(N=C2C=CC=CN12)C1=CC=CC=C1","3672-39-7","EN300-00959","428","2-Phenyl-imidazo[1,2-a]pyridine-3-carbaldehyde","-","A55638","25489863","-","-","144.0 - 146.0","?C","145.0","Celsius"
"ClC1=C(C=O)N2C=CC=CC2=N1","131773-23-4","EN300-00961","429","2-Chloro-imidazo[1,2-a]pyridine-3-carbaldehyde","-","A55638","25489863","-","-","124.0 - 126.0","?C","125.0","Celsius"
"ClC1=C(C=O)C(=O)N2C=CC=CC2=N1","17481-62-8","EN300-00976","431","2-Chloro-4-oxo-4H-pyrido[1,2-a]pyrimidine-3-carbaldehyde","-","A55638","25489863","-","-","213.0 - 215.0","?C","214.0","Celsius"
"CC1=C(C=O)N2C=CSC2=N1","75001-31-9","EN300-00977","432","6-Methyl-imidazo[2,1-b]thiazole-5-carbaldehyde","-","A55638","25489863","-","-","94.0 - 96.0","?C","95.0","Celsius"
"CC1=CSC2=NC(C)=C(C=O)N12","130182-30-8","EN300-00978","433","3,6-Dimethyl-imidazo[2,1-b]thiazole-5-carbaldehyde","-","A55638","25489863","-","-","153.0 - 155.0","?C","154.0","Celsius"
"O=CC1=C(N=C2SC=CN12)C1=CC=CC=C1","74630-73-2","EN300-00979","434","6-Phenyl-imidazo[2,1-b]thiazole-5-carbaldehyde","-","A55638","25489863","-","-","128.0 - 130.0","?C","129.0","Celsius"