"SMILES","CASRN","EXTERNALID","N","NAME","NAME","ARTICLEID","PUBMEDID","PAGE","TABLE","Melting Point {measured}","UNIT {Melting Point}","Melting Point {measured, converted}","UNIT {Melting Point}"
"CC1=C(C)C=C(C=C1)S(Cl)(=O)=O","2905-30-8","EN300-04519","1618","3,4-Dimethyl-benzenesulfonyl chloride","-","A55638","25489863","-","-","36.0 - 38.0","?C","37.0","Celsius"
"NS(=O)(=O)C1=CC(=CC=C1)C(O)=O","636-76-0","EN300-04520","1619","3-Sulfamoyl-benzoic acid","-","A55638","25489863","-","-","238.0 - 240.0","?C","239.0","Celsius"
"CCOC(=O)C1=CC=C(C=C1)S(Cl)(=O)=O","10486-51-8","EN300-04521","1620","4-Chlorosulfonyl-benzoic acid ethyl ester","-","A55638","25489863","-","-","49.0 - 51.0","?C","50.0","Celsius"
"COC1=CC(=CC=C1)C(=O)NCC(O)=O","57728-61-7","EN300-04525","1621","(3-Methoxy-benzoylamino)-acetic acid","-","A55638","25489863","-","-","78.0 - 80.0","?C","79.0","Celsius"
"OC(=O)CC(NC(=O)C1=CC=CC=C1)C1=CC=CC=C1","-","EN300-04527","1622","3-Benzoylamino-3-phenyl-propionic acid","-","A55638","25489863","-","-","197.0 - 199.0","?C","198.0","Celsius"
"CCOC(=O)C1=C(CC)NC2=C(C=CC=C2)N=C1N","-","EN300-04540","1624","4-Amino-2-ethyl-1H-benzo[b][1,4]diazepine-3-carboxylic acid ethyl ester","-","A55638","25489863","-","-","152.0 - 154.0","?C","153.0","Celsius"
"CC1=NC2=NC(N)=NN2C(C)=C1","7135-02-6","EN300-04541","1625","5,7-Dimethyl-[1,2,4]triazolo[1,5-a]pyrimidin-2-ylamine","-","A55638","25489863","-","-","369.0 - 371.0","?C","370.0","Celsius"
"OC(=O)CCC1=NC2=C(C=CC=C2)C(=O)N1","5368-37-6","EN300-04546","1626","3-(4-Oxo-3,4-dihydro-quinazolin-2-yl)-propionic acid","-","A55638","25489863","-","-","239.0 - 241.0","?C","240.0","Celsius"
"CC1=NN2C(S)=NN=C2N=C1O","877-28-1","EN300-04550","1627","3-Mercapto-6-methyl-[1,2,4]triazolo[4,3-b][1,2,4]triazin-7-ol","-","A55638","25489863","-","-","305.0 - 307.0","?C","306.0","Celsius"
"CCCCNC1=NC2=C(S1)C=C(C)C=C2","-","EN300-04555","1628","Butyl-(6-methyl-benzothiazol-2-yl)-amine","-","A55638","25489863","-","-","70.0 - 72.0","?C","71.0","Celsius"
"CC(=O)N1CCN(CC1)C(=O)CCl","-","EN300-04558","1629","1-(4-Acetyl-piperazin-1-yl)-2-chloro-ethanone","-","A55638","25489863","-","-","89.0 - 91.0","?C","90.0","Celsius"
"OC(=O)COC1=CC=C(NC2=CC=CC=C2)C=C1","-","EN300-04560","1630","(4-Phenylamino-phenoxy)-acetic acid","-","A55638","25489863","-","-","138.0 - 142.0","?C","140.0","Celsius"
"OC(=O)C1=C(NS(=O)(=O)C2=CC3=C(NC(=O)N3)C=C2)C=CC=C1","-","EN300-04561","1631","2-(2-Oxo-2,3-dihydro-1H-benzoimidazole-5-sulfonylamino)-benzoic acid","-","A55638","25489863","-","-","225.0 - 227.0","?C","226.0","Celsius"
"NC(=O)N1CCCC1C(O)=O","125411-62-3","EN300-04570","1632","1-Carbamoyl-pyrrolidine-2-carboxylic acid","-","A55638","25489863","-","-","205.0 - 207.0","?C","206.0","Celsius"
"O=C(CC1=NC2=C(N1)C=CC=C2)NCC1=NC=CC=C1","-","EN300-04571","1633","2-(1H-Benzoimidazol-2-yl)-N-pyridin-2-ylmethyl-acetamide","-","A55638","25489863","-","-","176.0 - 178.0","?C","177.0","Celsius"
"CCS(=O)(=O)N1CC2=C(CC1C(O)=O)C=CC=C2","-","EN300-04574","1634","2-Ethanesulfonyl-1,2,3,4-tetrahydro-isoquinoline-3-carboxylic acid","-","A55638","25489863","-","-","110.0 - 114.0","?C","112.0","Celsius"
"NC(=O)C1=C(N)SC(=C1)C1=CC=CC=C1","4815-35-4","EN300-04586","1635","2-Amino-5-phenyl-thiophene-3-carboxylic acid amide","-","A55638","25489863","-","-","200.0 - 210.0","?C","205.0","Celsius"
"CC1=C(C)C2=C(S1)N=CN=C2SC1=C(C=CC=C1)C(O)=O","-","EN300-04588","1636","2-(5,6-Dimethyl-thieno[2,3-d]pyrimidin-4-ylsulfanyl)-benzoic acid","-","A55638","25489863","-","-","200.0 - 202.0","?C","201.0","Celsius"
"CCOC(=O)C1=C(N)SC(C(=O)N(C)C)=C1C","217962-82-8","EN300-04589","1637","2-Amino-5-dimethylcarbamoyl-4-methyl-thiophene-3-carboxylic acid ethyl ester","-","A55638","25489863","-","-","118.0 - 122.0","?C","120.0","Celsius"
"CC(=O)C1=C(O)C(CCl)=CC(Cl)=C1","34987-36-5","EN300-04592","1638","1-(5-Chloro-3-chloromethyl-2-hydroxy-phenyl)-ethanone","-","A55638","25489863","-","-","72.0 - 74.0","?C","73.0","Celsius"
"OC(=O)C=CC(=O)C1=CC(F)=C(F)C=C1","-","EN300-04599","1639","4-(3,4-Difluoro-phenyl)-4-oxo-but-2-enoic acid","-","A55638","25489863","-","-","114.0 - 116.0","?C","115.0","Celsius"
"OC(=O)CC(Br)C(=O)C1=CC=C(Cl)C=C1","35158-39-5","EN300-04601","1640","3-Bromo-4-(4-chloro-phenyl)-4-oxo-butyric acid","-","A55638","25489863","-","-","113.0 - 117.0","?C","115.0","Celsius"
"CCOC(=O)C1=CC=C(C=C1)N1C(=O)CC2=C(C=CC=C2)C1=O","-","EN300-04602","1641","4-(1,3-Dioxo-3,4-dihydro-1H-isoquinolin-2-yl)-benzoic acid ethyl ester","-","A55638","25489863","-","-","174.0 - 176.0","?C","175.0","Celsius"
"CC1=CC=C(NC(=O)C(Cl)C2=CC=CC=C2)C=C1","10295-50-8","EN300-04607","1642","2-Chloro-2-phenyl-N-p-tolyl-acetamide","-","A55638","25489863","-","-","143.0 - 147.0","?C","145.0","Celsius"
"CC1=C(Cl)C=C(Cl)C(N)=N1","22137-52-6","EN300-04609","1643","3,5-Dichloro-6-methyl-pyridin-2-ylamine","-","A55638","25489863","-","-","136.0 - 138.0","?C","137.0","Celsius"
"CC1=C(Cl)C(N)=NC=C1Cl","31430-47-4","EN300-04611","1644","3,5-Dichloro-4-methyl-pyridin-2-ylamine","-","A55638","25489863","-","-","123.0 - 125.0","?C","124.0","Celsius"
"CC(C)C1=NN=C(S)N1N","-","EN300-04617","1646","4-Amino-5-isopropyl-4H-[1,2,4]triazole-3-thiol","-","A55638","25489863","-","-","117.0 - 119.0","?C","118.0","Celsius"
"SC1=NC2=C(C=CC=C2)C(=O)N1CC1=CC=C(Cl)C=C1","-","EN300-04621","1647","3-(4-Chloro-benzyl)-2-mercapto-3H-quinazolin-4-one","-","A55638","25489863","-","-","221.0 - 223.0","?C","222.0","Celsius"
"COC1=C(C=C(NC(=O)CCl)C=C1)S(=O)(=O)N1CCOCC1","-","EN300-04641","1648","2-Chloro-N-[4-methoxy-2-(morpholine-4-sulfonyl)-phenyl]-acetamide","-","A55638","25489863","-","-","121.0 - 123.0","?C","122.0","Celsius"
"O=C(CC#N)NC1=NC=CC=C1","90004-06-1","EN300-04648","1649","2-Cyano-N-pyridin-2-yl-acetamide","-","A55638","25489863","-","-","160.0 - 162.0","?C","161.0","Celsius"
"ClCC1=NN=C(O1)C1=CC=CC=C1","33575-83-6","EN300-04650","1650","2-Chloromethyl-5-phenyl-[1,3,4]oxadiazole","-","A55638","25489863","-","-","90.0 - 100.0","?C","95.0","Celsius"
"CC1=C(C=C(C=C1)[N+]([O-])=O)S(=O)(=O)N1CCC(CC1)C(O)=O","-","EN300-04654","1651","1-(2-Methyl-5-nitro-benzenesulfonyl)-piperidine-4-carboxylic acid","-","A55638","25489863","-","-","107.0 - 109.0","?C","108.0","Celsius"
"CC1=CC(C)=C(C)C(=C1C)S(=O)(=O)N1CCC(CC1)C(O)=O","-","EN300-04657","1652","1-(2,3,5,6-Tetramethyl-benzenesulfonyl)-piperidine-4-carboxylic acid","-","A55638","25489863","-","-","107.0 - 109.0","?C","108.0","Celsius"
"CC1=C(SCC(O)=O)C=CC=C1","18619-15-3","EN300-04663","1653","o-Tolylsulfanyl-acetic acid","-","A55638","25489863","-","-","108.0 - 110.0","?C","109.0","Celsius"
"CCN(CC)S(=O)(=O)C1=CC(=C(O)C=C1)[N+]([O-])=O","-","EN300-04664","1654","N,N-Diethyl-4-hydroxy-3-nitro-benzenesulfonamide","-","A55638","25489863","-","-","82.0 - 84.0","?C","83.0","Celsius"
"OC1=C(C=C(C=C1)S(=O)(=O)N1CCOCC1)[N+]([O-])=O","-","EN300-04666","1655","4-(Morpholine-4-sulfonyl)-2-nitro-phenol","-","A55638","25489863","-","-","217.0 - 219.0","?C","218.0","Celsius"
"CN(C1=CC=CC=C1)C1=C(C=C(C=O)C=C1)[N+]([O-])=O","-","EN300-04670","1656","4-(Methyl-phenyl-amino)-3-nitro-benzaldehyde","-","A55638","25489863","-","-","95.0 - 97.0","?C","96.0","Celsius"
"COC1=CC(=CC(OC)=C1)C(=O)NCC(O)=O","-","EN300-04673","1658","(3,5-Dimethoxy-benzoylamino)-acetic acid","-","A55638","25489863","-","-","91.0 - 93.0","?C","92.0","Celsius"
"NC(=O)N1CC(O)CC1C(O)=O","-","EN300-04674","1659","1-Carbamoyl-4-hydroxy-pyrrolidine-2-carboxylic acid","-","A55638","25489863","-","-","166.0 - 168.0","?C","167.0","Celsius"
"CC1=C(Cl)C(NC(=O)CCl)=NC=C1Cl","-","EN300-04675","1660","2-Chloro-N-(3,5-dichloro-4-methyl-pyridin-2-yl)-acetamide","-","A55638","25489863","-","-","268.0 - 270.0","?C","269.0","Celsius"
"CC1=CC(N2N=NN=C2SCC(O)=O)=C(C)C=C1","-","EN300-04679","1661","[1-(2,5-Dimethyl-phenyl)-1H-tetrazol-5-ylsulfanyl]-acetic acid","-","A55638","25489863","-","-","157.0 - 159.0","?C","158.0","Celsius"
"OC(=O)CSC1=NN=C(O1)C1=CC=C(Cl)C=C1","49809-28-1","EN300-04680","1662","[5-(4-Chloro-phenyl)-[1,3,4]oxadiazol-2-ylsulfanyl]-acetic acid","-","A55638","25489863","-","-","154.0 - 156.0","?C","155.0","Celsius"
"CC1=CC(C)=C(C)C=C1C1=NNC(N)=C1","-","EN300-04686","1664","5-(2,4,5-Trimethyl-phenyl)-2H-pyrazol-3-ylamine","-","A55638","25489863","-","-","145.0 - 147.0","?C","146.0","Celsius"
"CC1=CC=C(C=C1)C(=O)CCl","4209-24-9","EN300-04687","1665","2-Chloro-1-p-tolyl-ethanone","-","A55638","25489863","-","-","53.0 - 57.0","?C","55.0","Celsius"
"CN1C(=O)N(CC2=CC=CC=C2)C2=C(C(CC(O)=O)C(=O)N2)C1=O","-","EN300-04693","1666","(1-Benzyl-3-methyl-2,4,6-trioxo-2,3,4,5,6,7-hexahydro-1H-pyrrolo[2,3-d]pyrimidin-5-yl)-acetic acid","-","A55638","25489863","-","-","243.0 - 247.0","?C","245.0","Celsius"
"OC(=O)CC(Br)C(=O)C1=CC=CC=C1","53515-22-3","EN300-04697","1667","3-Bromo-4-oxo-4-phenyl-butyric acid","-","A55638","25489863","-","-","128.0 - 130.0","?C","129.0","Celsius"
"CC1=C(C)C=C(C=C1)C(=O)NCC(O)=O","23082-12-4","EN300-04701","1668","(3,4-Dimethyl-benzoylamino)-acetic acid","-","A55638","25489863","-","-","160.0 - 162.0","?C","161.0","Celsius"
"COC1=CC=C(NC(=O)C2=C(N)SC3=C2CCCC3)C=C1","83822-33-7","EN300-04703","1669","2-Amino-4,5,6,7-tetrahydro-benzo[b]thiophene-3-carboxylic acid (4-methoxy-phenyl)-amide","-","A55638","25489863","-","-","158.0 - 160.0","?C","159.0","Celsius"
"CCC1=NN=C(NC(=O)CCl)S1","21521-90-4","EN300-04719","1670","2-Chloro-N-(5-ethyl-[1,3,4]thiadiazol-2-yl)-acetamide","-","A55638","25489863","-","-","101.0 - 103.0","?C","102.0","Celsius"
"ClCC(=O)NC1C2CC3CC(C2)CC1C3","103951-51-5","EN300-04720","1671","N-Adamantan-2-yl-2-chloro-acetamide","-","A55638","25489863","-","-","118.0 - 122.0","?C","120.0","Celsius"
"OC(=O)C1=C(NCC2=CC=CO2)C=CC=C1","-","EN300-04721","1672","2-[(Furan-2-ylmethyl)-amino]-benzoic acid","-","A55638","25489863","-","-","156.0 - 158.0","?C","157.0","Celsius"
"OC(=O)C1=C(NCCC2=CCCCC2)C=CC=C1","-","EN300-04724","1673","2-(2-Cyclohex-1-enyl-ethylamino)-benzoic acid","-","A55638","25489863","-","-","129.0 - 131.0","?C","130.0","Celsius"
"CC1=C(C)C=C(C=C1)S(=O)(=O)NCCC(O)=O","-","EN300-04726","1674","3-(3,4-Dimethyl-benzenesulfonylamino)-propionic acid","-","A55638","25489863","-","-","126.0 - 128.0","?C","127.0","Celsius"
"CC1=C(C)C=C(C=C1)S(=O)(=O)NCC(O)=O","-","EN300-04727","1675","(3,4-Dimethyl-benzenesulfonylamino)-acetic acid","-","A55638","25489863","-","-","123.0 - 125.0","?C","124.0","Celsius"
"ClC1=CC=C(C=C1)S(=O)(=O)N1CCNCC1","16017-53-1","EN300-04728","1676","1-(4-Chloro-benzenesulfonyl)-piperazine","-","A55638","25489863","-","-","99.0 - 103.0","?C","101.0","Celsius"
"CC1=C(C)C2=C(S1)N=C(CC#N)NC2=O","-","EN300-04738","1677","(5,6-Dimethyl-4-oxo-3,4-dihydro-thieno[2,3-d]pyrimidin-2-yl)-acetonitrile","-","A55638","25489863","-","-","283.0 - 285.0","?C","284.0","Celsius"
"NC1=C(O)C=CC(=C1)S(=O)(=O)N1CCCC1","-","EN300-04747","1678","2-Amino-4-(pyrrolidine-1-sulfonyl)-phenol","-","A55638","25489863","-","-","163.0 - 165.0","?C","164.0","Celsius"
"CC1=NN(CC2=CC=CC=C2)C(=O)C1","946-23-6","EN300-04750","1679","2-Benzyl-5-methyl-2H-pyrazol-3-ol","-","A55638","25489863","-","-","175.0 - 177.0","?C","176.0","Celsius"
"OC(=O)CCC(=O)C1=CC=C(Cl)S1","70685-06-2","EN300-04754","1680","4-(5-Chloro-thiophen-2-yl)-4-oxo-butyric acid","-","A55638","25489863","-","-","122.0 - 124.0","?C","123.0","Celsius"
"CN1C(SCC(O)=O)=NC2=C1C=CC=C2","159222-24-9","EN300-04755","1681","(1-Methyl-1H-benzoimidazol-2-ylsulfanyl)-acetic acid","-","A55638","25489863","-","-","155.0 - 159.0","?C","157.0","Celsius"
"OC(=O)C1CCN(CC1)C1=C(C=C(C=C1)S(=O)(=O)N1CCOCC1)[N+]([O-])=O","-","EN300-04757","1682","1-[4-(Morpholine-4-sulfonyl)-2-nitro-phenyl]-piperidine-4-carboxylic acid","-","A55638","25489863","-","-","225.0 - 227.0","?C","226.0","Celsius"
"NC1=NN=C(O1)C1=CC=C(Cl)C=C1","2138-98-9","EN300-04763","1683","5-(4-Chloro-phenyl)-[1,3,4]oxadiazol-2-ylamine","-","A55638","25489863","-","-","260.0 - 262.0","?C","261.0","Celsius"
"CC(C)(C)C1=CC=C(OC2=C(C=C(C=O)C=C2)[N+]([O-])=O)C=C1","-","EN300-04764","1684","4-(4-tert-Butyl-phenoxy)-3-nitro-benzaldehyde","-","A55638","25489863","-","-","156.0 - 158.0","?C","157.0","Celsius"
"COC1=CC=C(OC2=C(C=C(C=O)C=C2)[N+]([O-])=O)C=C1","15962-63-7","EN300-04765","1685","4-(4-Methoxy-phenoxy)-3-nitro-benzaldehyde","-","A55638","25489863","-","-","67.0 - 69.0","?C","68.0","Celsius"
"CNC1=C(C=C(C=O)C=C1)[N+]([O-])=O","42564-41-0","EN300-04766","1686","4-Methylamino-3-nitro-benzaldehyde","-","A55638","25489863","-","-","118.0 - 120.0","?C","119.0","Celsius"
"CC1CCC2=C(C1)SC1=C2C(Cl)=NC(C)=N1","-","EN300-04770","1687","4-Chloro-2,7-dimethyl-5,6,7,8-tetrahydro-benzo[4,5]thieno[2,3-d]pyrimidine","-","A55638","25489863","-","-","89.0 - 91.0","?C","90.0","Celsius"
"CC(=O)C1=CC=C(C=C1)S(=O)(=O)N1CCCCC1","58722-34-2","EN300-04776","1688","1-[4-(Piperidine-1-sulfonyl)-phenyl]-ethanone","-","A55638","25489863","-","-","139.0 - 142.0","?C","140.0","Celsius"
"O=C1NC(CC2=CNC3=C2C=CC=C3)C(=O)N1","-","EN300-04778","1689","5-(1H-Indol-3-ylmethyl)-imidazolidine-2,4-dione","-","A55638","25489863","-","-","235.0 - 237.0","?C","236.0","Celsius"
"COC1=C(OCC(=O)C2=CC(Cl)=C(Cl)C=C2)C=CC(C=O)=C1","-","EN300-04783","1690","4-[2-(3,4-Dichloro-phenyl)-2-oxo-ethoxy]-3-methoxy-benzaldehyde","-","A55638","25489863","-","-","137.0 - 139.0","?C","138.0","Celsius"
"CN1C(NCCO)=NC2=C1C=CC=C2","57262-39-2","EN300-04785","1691","2-(1-Methyl-1H-benzoimidazol-2-ylamino)-ethanol","-","A55638","25489863","-","-","75.0 - 77.0","?C","76.0","Celsius"
"CC(=O)C1=CC(C)=CC(C(C)=O)=C1O","55108-28-6","EN300-04790","1692","1-(3-Acetyl-2-hydroxy-5-methyl-phenyl)-ethanone","-","A55638","25489863","-","-","50.0 - 52.0","?C","51.0","Celsius"
"ClCC1=CC(=O)N2C=CSC2=N1","62773-09-5","EN300-04791","1693","7-Chloromethyl-thiazolo[3,2-a]pyrimidin-5-one","-","A55638","25489863","-","-","180.0 - 182.0","?C","181.0","Celsius"
"CC1=CN2C(=O)C=C(CCl)N=C2C=C1","87591-79-5","EN300-04794","1694","2-Chloromethyl-7-methyl-pyrido[1,2-a]pyrimidin-4-one","-","A55638","25489863","-","-","136.0 - 138.0","?C","137.0","Celsius"
"CCOC(=O)C1=C(N)SC=C1C1CC1","120109-75-3","EN300-04796","1696","2-Amino-4-cyclopropyl-thiophene-3-carboxylic acid ethyl ester","-","A55638","25489863","-","-","70.0 - 72.0","?C","71.0","Celsius"
"CN1C(CC(=O)NN)=NC2=C1C=CC=C2","-","EN300-04803","1697","(1-Methyl-1H-benzoimidazol-2-yl)-acetic acid hydrazide","-","A55638","25489863","-","-","206.0 - 208.0","?C","207.0","Celsius"
"[O-][N+](=O)C1=CC(Cl)=C(C=C1)C1=CC=C(O1)C=O","327049-94-5","EN300-04805","1698","5-(2-Chloro-4-nitro-phenyl)-furan-2-carbaldehyde","-","A55638","25489863","-","-","136.0 - 138.0","?C","137.0","Celsius"
"COC1=CC(=C(C=C1)C1=CC=C(O1)C=O)[N+]([O-])=O","-","EN300-04806","1699","5-(4-Methoxy-2-nitro-phenyl)-furan-2-carbaldehyde","-","A55638","25489863","-","-","107.0 - 109.0","?C","108.0","Celsius"
"[O-][N+](=O)C1=CC(Br)=C(C=C1)C1=CC=C(O1)C=O","327049-95-6","EN300-04808","1700","5-(2-Bromo-4-nitro-phenyl)-furan-2-carbaldehyde","-","A55638","25489863","-","-","132.0 - 136.0","?C","134.0","Celsius"
"CC1=NC2=C(C=CC=C2)C(=C1)C(=O)NN","29620-66-4","EN300-04810","1701","2-Methyl-quinoline-4-carboxylic acid hydrazide","-","A55638","25489863","-","-","177.0 - 179.0","?C","178.0","Celsius"
"OC(=O)C1=C(SCC2=CC=C(C=C2)C#N)C=CC=C1","100961-52-2","EN300-04811","1702","2-(4-Cyano-benzylsulfanyl)-benzoic acid","-","A55638","25489863","-","-","208.0 - 210.0","?C","209.0","Celsius"
"COCCN1C(S)=NC2=C1C=CC=C2","-","EN300-04813","1703","1-(2-Methoxy-ethyl)-1H-benzoimidazole-2-thiol","-","A55638","25489863","-","-","127.0 - 129.0","?C","128.0","Celsius"
"CC1=CC=C(C=C1)S(=O)(=O)C1=CC=C(NN)C=C1","-","EN300-04815","1704","[4-(Toluene-4-sulfonyl)-phenyl]-hydrazine","-","A55638","25489863","-","-","173.0 - 175.0","?C","174.0","Celsius"
"OC(=O)CNC(=O)C1=CC(Cl)=C(Cl)C=C1","17321-80-1","EN300-04818","1705","(3,4-Dichloro-benzoylamino)-acetic acid","-","A55638","25489863","-","-","136.0 - 138.0","?C","137.0","Celsius"
"CCCCN1C(=O)C2=C(C=C(C=C2)C(O)=O)C1=O","96296-39-8","EN300-04823","1707","2-Butyl-1,3-dioxo-2,3-dihydro-1H-isoindole-5-carboxylic acid","-","A55638","25489863","-","-","152.0 - 154.0","?C","153.0","Celsius"
"COC1=C(OC)C=C(CCN2C(S)=NC3=C(C=CC=C3)C2=O)C=C1","-","EN300-04828","1709","3-[2-(3,4-Dimethoxy-phenyl)-ethyl]-2-mercapto-3H-quinazolin-4-one","-","A55638","25489863","-","-","223.0 - 225.0","?C","224.0","Celsius"
"CC1=CC(C=O)=C(C)N1C1=C(C)C=CC=C1","119673-47-1","EN300-04830","1710","2,5-Dimethyl-1-o-tolyl-1H-pyrrole-3-carbaldehyde","-","A55638","25489863","-","-","71.0 - 73.0","?C","72.0","Celsius"
"CN(C1=CC=C(O)C=C1)S(=O)(=O)C1=CC=C(C)C=C1","124772-05-0","EN300-04831","1711","N-(4-Hydroxy-phenyl)-4,N-dimethyl-benzenesulfonamide","-","A55638","25489863","-","-","137.0 - 139.0","?C","138.0","Celsius"
"O=CC1=C(N=C(S1)N1CCCCC1)C1=CC=CS1","-","EN300-04836","1712","2-Piperidin-1-yl-4-thiophen-2-yl-thiazole-5-carbaldehyde","-","A55638","25489863","-","-","117.0 - 119.0","?C","118.0","Celsius"
"CC1=CC=C(C)N1C1=CC=C(Br)C=C1","5044-24-6","EN300-04838","1713","1-(4-Bromo-phenyl)-2,5-dimethyl-1H-pyrrole","-","A55638","25489863","-","-","61.0 - 63.0","?C","62.0","Celsius"
"OC(=O)C1=C(I)C=CC(Br)=C1","21740-00-1","EN300-04839","1714","5-Bromo-2-iodo-benzoic acid","-","A55638","25489863","-","-","120.0 - 122.0","?C","121.0","Celsius"
"COC1=C(OCC#N)C=CC(C=O)=C1","342592-62-5","EN300-04840","1715","(4-Formyl-2-methoxy-phenoxy)-acetonitrile","-","A55638","25489863","-","-","75.0 - 77.0","?C","76.0","Celsius"
"COC(=O)C1=C(CBr)C(C(=O)OC)=C(N)S1","-","EN300-04841","1716","5-Amino-3-bromomethyl-thiophene-2,4-dicarboxylic acid dimethyl ester","-","A55638","25489863","-","-","163.0 - 165.0","?C","164.0","Celsius"
"CC(=O)C(Cl)C(=O)NC1=CC=CC=C1","31844-92-5","EN300-04842","1717","2-Chloro-3-oxo-N-phenyl-butyramide","-","A55638","25489863","-","-","101.0 - 104.0","?C","102.0","Celsius"
"ClC1=CC=C(C=C1)C(=O)C(=O)C1=CC=C(Cl)C=C1","3457-46-3","EN300-04843","1718","1,2-Bis-(4-chloro-phenyl)-ethane-1,2-dione","-","A55638","25489863","-","-","198.0 - 200.0","?C","199.0","Celsius"
"CN(C1=CC=C(O)C=C1)S(=O)(=O)C1=CC=C(Cl)C=C1","-","EN300-04844","1719","4-Chloro-N-(4-hydroxy-phenyl)-N-methyl-benzenesulfonamide","-","A55638","25489863","-","-","154.0 - 156.0","?C","155.0","Celsius"
"NC(=O)C1=CC(=CC(N)=C1)C(N)=O","28321-49-5","EN300-04845","1720","5-Amino-isophthalamide","-","A55638","25489863","-","-","246.0 - 248.0","?C","247.0","Celsius"
"NC1=C(C(=O)C2=CC=CC=C2)C2=C(CCCC2)S1","4651-72-3","EN300-04846","1721","(2-Amino-4,5,6,7-tetrahydro-benzo[b]thiophen-3-yl)-phenyl-methanone","-","A55638","25489863","-","-","123.0 - 127.0","?C","125.0","Celsius"
"CC1=CC(C(O)=O)=C(C)N1C1=C(C)C=CC=C1","-","EN300-04847","1722","2,5-Dimethyl-1-o-tolyl-1H-pyrrole-3-carboxylic acid","-","A55638","25489863","-","-","127.0 - 129.0","?C","128.0","Celsius"
"NC(=O)C1=C(NC(=O)CCl)SC(=C1)C1=CC=CC=C1","-","EN300-04849","1723","2-(2-Chloro-acetylamino)-5-phenyl-thiophene-3-carboxylic acid amide","-","A55638","25489863","-","-","208.0 - 210.0","?C","209.0","Celsius"
"CC1=NC2=C(C=C(S2)C2=CC=CC=C2)C(Cl)=N1","-","EN300-04850","1724","4-Chloro-2-methyl-6-phenyl-thieno[2,3-d]pyrimidine","-","A55638","25489863","-","-","114.0 - 116.0","?C","115.0","Celsius"
"CC1=CC(=O)N2C3=C(NC2=C1C#N)C=CC=C3","60792-57-6","EN300-04855","1725","3-Methyl-1-oxo-1,5-dihydro-benzo[4,5]imidazo[1,2-a]pyridine-4-carbonitrile","-","A55638","25489863","-","-","270.0 - 272.0","?C","271.0","Celsius"
"ClCC(=O)NC1=C(C(=O)C2=CC=CC=C2)C2=C(CCCC2)S1","-","EN300-04858","1726","N-(3-Benzoyl-4,5,6,7-tetrahydro-benzo[b]thiophen-2-yl)-2-chloro-acetamide","-","A55638","25489863","-","-","110.0 - 112.0","?C","111.0","Celsius"
"CN(C1=CC=C(O)C=C1)S(=O)(=O)C1=CC=CC=C1","34523-31-4","EN300-04861","1727","N-(4-Hydroxy-phenyl)-N-methyl-benzenesulfonamide","-","A55638","25489863","-","-","131.0 - 133.0","?C","132.0","Celsius"
"CN(C1=CC=C(O)C=C1)S(=O)(=O)C1=CC=C(F)C=C1","-","EN300-04862","1728","4-Fluoro-N-(4-hydroxy-phenyl)-N-methyl-benzenesulfonamide","-","A55638","25489863","-","-","152.0 - 154.0","?C","153.0","Celsius"