"SMILES","CASRN","EXTERNALID","N","NAME","NAME","ARTICLEID","PUBMEDID","PAGE","TABLE","Melting Point {measured}","UNIT {Melting Point}","Melting Point {measured, converted}","UNIT {Melting Point}"
"OC(=O)C1=C(F)C(F)=CC(=C1)S(Cl)(=O)=O","-","EN300-101800","3945","5-(chlorosulfonyl)-2,3-difluorobenzoic acid","-","A55638","25489863","-","-","111.0 - 113.0","?C","112.0","Celsius"
"OCCNC(=O)C1=C(O)C=C(O)C=C1","-","EN300-101801","3946","2,4-Dihydroxy-N-(2-hydroxyethyl)benzamide","-","A55638","25489863","-","-","163.0 - 165.0","?C","164.0","Celsius"
"OC(CC1CCCN1)C1=CC=CS1","-","EN300-101805","3948","2-(pyrrolidin-2-yl)-1-(thiophen-2-yl)ethan-1-ol","-","A55638","25489863","-","-","63.0 - 65.0","?C","64.0","Celsius"
"CC1=C(C=C(C=C1)S(C)(=O)=O)C(O)=O","-","EN300-10181","3949","2-methyl-5-(methylsulfonyl)benzoic acid","-","A55638","25489863","-","-","204.0 - 206.0","?C","205.0","Celsius"
"CC1=C(C)C=C(C=C1)S(=O)(=O)NC(CCC(N)=O)C(O)=O","-","EN300-10182","3950","5-amino-2-{[(3,4-dimethylphenyl)sulfonyl]amino}-5-oxopentanoic acid","-","A55638","25489863","-","-","171.0 - 173.0","?C","172.0","Celsius"
"CN1C(=O)NC(=O)C11CCCCC1","878-46-6","EN300-10184","3951","1-methyl-1,3-diazaspiro[4.5]decane-2,4-dione","-","A55638","25489863","-","-","172.0 - 174.0","?C","173.0","Celsius"
"CCC1=NOC(=N1)C1=CC(N)=C(C)C=C1","-","EN300-101843","3952","5-(3-ethyl-1,2,4-oxadiazol-5-yl)-2-methylaniline","-","A55638","25489863","-","-","77.0 - 79.0","?C","78.0","Celsius"
"ClC1=CC2=C(SCCCN2)C=C1","-","EN300-101844","3953","7-chloro-2,3,4,5-tetrahydro-1,5-benzothiazepine","-","A55638","25489863","-","-","51.0 - 53.0","?C","52.0","Celsius"
"OC(=O)C1CCC(=O)N(CC2=CC=CC=C2)C1","-","EN300-101845","3954","1-benzyl-6-oxopiperidine-3-carboxylic acid","-","A55638","25489863","-","-","154.0 - 156.0","?C","155.0","Celsius"
"CS(=O)(=O)OC1CCOC2(CCOCC2)C1","-","EN300-101847","3956","1,9-dioxaspiro[5.5]undecan-4-yl methanesulfonate","-","A55638","25489863","-","-","110.0 - 112.0","?C","111.0","Celsius"
"CC1=C(C)C=C(C=C1)C(=O)CC1=CC=CC=C1","-","EN300-101848","3957","1-(3,4-dimethylphenyl)-2-phenylethan-1-one","-","A55638","25489863","-","-","93.0 - 95.0","?C","94.0","Celsius"
"CC(NC(N)=O)C1CC2CCC1C2","-","EN300-10185","3958","N-(1-bicyclo[2.2.1]hept-2-ylethyl)urea","-","A55638","25489863","-","-","167.0 - 169.0","?C","168.0","Celsius"
"CCCCCCOC(=O)C1=CC=C(N)C=C1","-","EN300-101858","3959","hexyl 4-aminobenzoate","-","A55638","25489863","-","-","59.0 - 61.0","?C","60.0","Celsius"
"ClC1=CC(=NC2=NC=NN12)C1CC1","-","EN300-101859","3960","7-chloro-5-cyclopropyl-[1,2,4]triazolo[1,5-a]pyrimidine","-","A55638","25489863","-","-","99.0 - 101.0","?C","100.0","Celsius"
"NC1=CC(=NO1)C1=CC=C(F)C=C1","81465-82-9","EN300-10186","3961","3-(4-fluorophenyl)isoxazol-5-amine","-","A55638","25489863","-","-","100.0 - 102.0","?C","101.0","Celsius"
"NC1=CC=C(C=C1)C(=O)OC1CCCC1","-","EN300-101860","3962","cyclopentyl 4-aminobenzoate","-","A55638","25489863","-","-","55.0 - 57.0","?C","56.0","Celsius"
"CNS(=O)(=O)C1=CC(C(O)=O)=C(C)O1","-","EN300-101863","3963","2-methyl-5-(methylsulfamoyl)furan-3-carboxylic acid","-","A55638","25489863","-","-","154.0 - 156.0","?C","155.0","Celsius"
"ClCCS(=O)(=O)C1=CC(Br)=CC=C1","-","EN300-101864","3964","1-bromo-3-[(2-chloroethane)sulfonyl]benzene","-","A55638","25489863","-","-","63.0 - 65.0","?C","64.0","Celsius"
"COC(=O)C(Cl)C1=CC(=CC=C1)C#N","-","EN300-101865","3965","methyl 2-chloro-2-(3-cyanophenyl)acetate","-","A55638","25489863","-","-","49.0 - 51.0","?C","50.0","Celsius"
"CC(=O)N1CCC(O)C1","-","EN300-101867","3966","1-(3-hydroxypyrrolidin-1-yl)ethan-1-one","-","A55638","25489863","-","-","77.0 - 79.0","?C","78.0","Celsius"
"OC(=O)C1=CC(=CS1)S(F)(=O)=O","-","EN300-101868","3967","4-(fluorosulfonyl)thiophene-2-carboxylic acid","-","A55638","25489863","-","-","191.0 - 193.0","?C","192.0","Celsius"
"ClS(=O)(=O)C1=C(Br)C(Br)=CS1","-","EN300-101874","3970","3,4-dibromothiophene-2-sulfonyl chloride","-","A55638","25489863","-","-","111.0 - 113.0","?C","112.0","Celsius"
"CC1=C(C=CC=C1)N1C=NN=C1S","36017-19-3","EN300-10188","3971","4-(2-methylphenyl)-4H-1,2,4-triazole-3-thiol","-","A55638","25489863","-","-","144.0 - 146.0","?C","145.0","Celsius"
"OC(CC1CCCCCN1)C1=CC=CS1","-","EN300-101889","3973","2-(azepan-2-yl)-1-(thiophen-2-yl)ethan-1-ol","-","A55638","25489863","-","-","60.0 - 62.0","?C","61.0","Celsius"
"NC1=NC(=O)NC11CCCC1","-","EN300-101895","3975","4-amino-1,3-diazaspiro[4.4]non-3-en-2-one","-","A55638","25489863","-","-","250.0 - 252.0","?C","251.0","Celsius"
"OC(=O)C1=CC(=CC(=C1)[N+]([O-])=O)S(Cl)(=O)=O","-","EN300-101896","3976","3-(chlorosulfonyl)-5-nitrobenzoic acid","-","A55638","25489863","-","-","162.0 - 164.0","?C","163.0","Celsius"
"OC(=O)C1=C(C=CC=N1)C(F)(F)F","-","EN300-101921","3978","3-(trifluoromethyl)pyridine-2-carboxylic acid","-","A55638","25489863","-","-","107.0 - 109.0","?C","108.0","Celsius"
"COC1=C(OC)C=C(C=C1)C1=NC(CC(O)=O)=CS1","-","EN300-10193","3979","[2-(3,4-dimethoxyphenyl)-1,3-thiazol-4-yl]acetic acid","-","A55638","25489863","-","-","162.0 - 164.0","?C","163.0","Celsius"
"OC(CC1CCCCCN1)C1=CC=CC=C1","-","EN300-101943","3981","2-(azepan-2-yl)-1-phenylethan-1-ol","-","A55638","25489863","-","-","36.0 - 38.0","?C","37.0","Celsius"
"NC1=C(Cl)C=C(F)C(Br)=C1","-","EN300-101948","3982","5-bromo-2-chloro-4-fluoroaniline","-","A55638","25489863","-","-","71.0 - 73.0","?C","72.0","Celsius"
"CC1=CC(=NN1C1=CC=C(Br)C=C1)C(O)=O","-","EN300-101951","3983","1-(4-bromophenyl)-5-methyl-1H-pyrazole-3-carboxylic acid","-","A55638","25489863","-","-","211.0 - 213.0","?C","212.0","Celsius"
"OC(=O)C1=CC(SCC#N)=CC=C1","-","EN300-101952","3984","3-[(cyanomethyl)sulfanyl]benzoic acid","-","A55638","25489863","-","-","144.0 - 146.0","?C","145.0","Celsius"
"COC1=C(OC)C=C(CNC2=NC=NC=C2)C=C1","-","EN300-101953","3985","N-[(3,4-dimethoxyphenyl)methyl]pyrimidin-4-amine","-","A55638","25489863","-","-","124.0 - 126.0","?C","125.0","Celsius"
"CCN(C(C)=O)C1=NC(CCl)=CS1","-","EN300-10196","3986","N-[4-(chloromethyl)-1,3-thiazol-2-yl]-N-ethylacetamide","-","A55638","25489863","-","-","82.0 - 84.0","?C","83.0","Celsius"
"NC1=CC2=C(C=C1)N=C(O2)C1CC1","-","EN300-101960","3987","2-cyclopropyl-1,3-benzoxazol-6-amine","-","A55638","25489863","-","-","99.0 - 101.0","?C","100.0","Celsius"
"ClC1=C2C=CC(=CC2=C(Cl)C=C1)S(Cl)(=O)=O","-","EN300-101961","3988","5,8-dichloronaphthalene-2-sulfonyl chloride","-","A55638","25489863","-","-","127.0 - 129.0","?C","128.0","Celsius"
"CN1C2=C(C=CC=C2)N2C(S)=NN=C12","-","EN300-101962","3989","7-methyl-2,4,5,7-tetraazatricyclo[6.4.0.0^{2,6}]dodeca-1(8),5,9,11-tetraene-3-thione","-","A55638","25489863","-","-","270.0 - 272.0","?C","271.0","Celsius"
"OC(=O)CCSC1=C2C=CC(Cl)=CC2=NC=C1","-","EN300-101963","3990","3-[(7-chloroquinolin-4-yl)sulfanyl]propanoic acid","-","A55638","25489863","-","-","209.0 - 211.0","?C","210.0","Celsius"
"CC(C)OC1=C(N=CC=C1)C(O)=O","-","EN300-101965","3991","3-(propan-2-yloxy)pyridine-2-carboxylic acid","-","A55638","25489863","-","-","199.0 - 201.0","?C","200.0","Celsius"
"COCC1=NC2=C(O1)C=CC(N)=C2","-","EN300-101969","3993","2-(methoxymethyl)-1,3-benzoxazol-5-amine","-","A55638","25489863","-","-","54.0 - 56.0","?C","55.0","Celsius"
"CC1=NN=C(S)N1C1=C(C)C=CC=C1","-","EN300-10197","3994","5-methyl-4-(2-methylphenyl)-4H-1,2,4-triazole-3-thiol","-","A55638","25489863","-","-","201.0 - 203.0","?C","202.0","Celsius"
"COC1=NC(=CC=C1)C#C","-","EN300-101973","3995","2-ethynyl-6-methoxypyridine","-","A55638","25489863","-","-","47.0 - 49.0","?C","48.0","Celsius"
"CC(=O)N(C1=NC(CCl)=CS1)C1=CC(C)=CC=C1","-","EN300-10199","3998","N-[4-(chloromethyl)-1,3-thiazol-2-yl]-N-(3-methylphenyl)acetamide","-","A55638","25489863","-","-","117.0 - 119.0","?C","118.0","Celsius"
"CCC1=NN(C)C(=O)C1","-","EN300-101991","3999","3-ethyl-1-methyl-4,5-dihydro-1H-pyrazol-5-one","-","A55638","25489863","-","-","89.0 - 91.0","?C","90.0","Celsius"
"NC1=C(N=C2C=CC=CN12)C1=CC=NC=C1","-","EN300-101992","4000","2-(pyridin-4-yl)imidazo[1,2-a]pyridin-3-amine","-","A55638","25489863","-","-","211.0 - 213.0","?C","212.0","Celsius"
"NC1=C(C=CC=C1)C(=O)NC1CCCC1","142141-37-5","EN300-10203","4002","2-amino-N-cyclopentylbenzamide","-","A55638","25489863","-","-","174.0 - 176.0","?C","175.0","Celsius"
"OC(=O)C1(Br)CCCCC1","-","EN300-102036","4004","1-bromocyclohexane-1-carboxylic acid","-","A55638","25489863","-","-","57.0 - 59.0","?C","58.0","Celsius"
"CCNC(=O)NC1=C(N)C=CC(F)=C1","-","EN300-102038","4006","1-(2-amino-5-fluorophenyl)-3-ethylurea","-","A55638","25489863","-","-","147.0 - 149.0","?C","148.0","Celsius"
"CC1(C)NC(=O)N2C1=NC(=N)C2(C)C","-","EN300-102039","4007","2-imino-3,3,7,7-tetramethyl-2H,3H,5H,6H,7H-imidazo[1,2-c]imidazolidin-5-one","-","A55638","25489863","-","-","236.0 - 238.0","?C","237.0","Celsius"
"NC1=C(N=C(Cl)C=C1)C(O)=O","-","EN300-102043","4008","3-amino-6-chloropyridine-2-carboxylic acid","-","A55638","25489863","-","-","219.0 - 221.0","?C","220.0","Celsius"
"C(CC1=CC=CC=C1)NC1=NC=CS1","-","EN300-102044","4009","N-(2-phenylethyl)-1,3-thiazol-2-amine","-","A55638","25489863","-","-","68.0 - 70.0","?C","69.0","Celsius"
"O=C1NC2=C(C=C3OCCOC3=C2)C1=O","-","EN300-10205","4011","2,3-dihydro-6H-[1,4]dioxino[2,3-f]indole-7,8-dione","-","A55638","25489863","-","-","210.0 - 212.0","?C","211.0","Celsius"
"NC1=CC=C(SC2=CC=C(C=C2)C(F)(F)F)C=C1","-","EN300-102051","4012","4-{[4-(trifluoromethyl)phenyl]sulfanyl}aniline","-","A55638","25489863","-","-","93.0 - 95.0","?C","94.0","Celsius"
"COC1=NC2=C(O1)C=CC(N)=C2","-","EN300-102057","4014","2-methoxy-1,3-benzoxazol-5-amine","-","A55638","25489863","-","-","123.0 - 125.0","?C","124.0","Celsius"
"CC(C)(C)C1=NOC(=N1)C1=C(N)C=CC(Cl)=C1","-","EN300-102067","4015","2-(3-tert-butyl-1,2,4-oxadiazol-5-yl)-4-chloroaniline","-","A55638","25489863","-","-","132.0 - 134.0","?C","133.0","Celsius"
"OC(=O)C1=C2C=C(Cl)C=CC2=NC(=C1)C1CC1","-","EN300-102073","4016","6-chloro-2-cyclopropylquinoline-4-carboxylic acid","-","A55638","25489863","-","-","211.0 - 213.0","?C","212.0","Celsius"
"CCC(NC1=NC(C)=CS1)C(O)=O","-","EN300-102077","4017","2-[(4-methyl-1,3-thiazol-2-yl)amino]butanoic acid","-","A55638","25489863","-","-","173.0 - 175.0","?C","174.0","Celsius"
"OC(=O)C1=C(Br)C(=CC(F)=C1)[N+]([O-])=O","-","EN300-102079","4018","2-bromo-5-fluoro-3-nitrobenzoic acid","-","A55638","25489863","-","-","177.0 - 179.0","?C","178.0","Celsius"
"O=C(CCC#N)C1=CC=CO1","17960-37-1","EN300-10208","4019","4-(2-furyl)-4-oxobutanenitrile","-","A55638","25489863","-","-","80.0 - 84.0","?C","82.0","Celsius"
"O=S1(=O)CCC(NC2=CC=CC=C2)=C1","-","EN300-102084","4020","4-(phenylamino)-2,3-dihydro-1$l^{6}-thiophene-1,1-dione","-","A55638","25489863","-","-","153.0 - 155.0","?C","154.0","Celsius"
"ClCC(=O)NC1=CC2=C(OCCCO2)C=C1","-","EN300-10209","4021","2-chloro-N-3,4-dihydro-2H-1,5-benzodioxepin-7-ylacetamide","-","A55638","25489863","-","-","108.0 - 110.0","?C","109.0","Celsius"
"CC1=CC=C(NC2CS(=O)(=O)C=C2)C=C1","-","EN300-102093","4022","3-[(4-methylphenyl)amino]-2,3-dihydro-1$l^{6}-thiophene-1,1-dione","-","A55638","25489863","-","-","115.0 - 117.0","?C","116.0","Celsius"
"CN(C)C(=O)C1=C(O)C=CC=C1","-","EN300-102097","4023","2-hydroxy-N,N-dimethylbenzamide","-","A55638","25489863","-","-","161.0 - 163.0","?C","162.0","Celsius"
"CCCOC1=C(OC)C=C(C=C1)C#N","60758-85-2","EN300-10210","4024","3-methoxy-4-propoxybenzonitrile","-","A55638","25489863","-","-","90.0 - 92.0","?C","91.0","Celsius"
"CCOC1=C(C=O)C=C2OC(C)CC2=C1","-","EN300-10212","4027","5-ethoxy-2-methyl-2,3-dihydro-1-benzofuran-6-carbaldehyde","-","A55638","25489863","-","-","74.0 - 78.0","?C","76.0","Celsius"
"COC1=CC(=CC=C1)C(C)=CC(O)=O","-","EN300-102121","4028","3-(3-methoxyphenyl)but-2-enoic acid","-","A55638","25489863","-","-","102.0 - 104.0","?C","103.0","Celsius"
"ClS(=O)(=O)N1CCCC2CCCCC12","-","EN300-102122","4029","decahydroquinoline-1-sulfonyl chloride","-","A55638","25489863","-","-","34.0 - 36.0","?C","35.0","Celsius"
"CC1=NN(C(N)=C1)C1=NC=NC(Cl)=C1","-","EN300-102124","4030","1-(6-chloropyrimidin-4-yl)-3-methyl-1H-pyrazol-5-amine","-","A55638","25489863","-","-","171.0 - 173.0","?C","172.0","Celsius"
"CN1N=C(C)C(C=O)=C1OC1=CN=CC=C1","-","EN300-102126","4031","1,3-dimethyl-5-(pyridin-3-yloxy)-1H-pyrazole-4-carbaldehyde","-","A55638","25489863","-","-","91.0 - 93.0","?C","92.0","Celsius"
"CNC(=O)C1=NC=CC(OC2=C(C)C(O)=CC=C2)=C1","-","EN300-102128","4032","4-(3-hydroxy-2-methylphenoxy)-N-methylpyridine-2-carboxamide","-","A55638","25489863","-","-","179.0 - 181.0","?C","180.0","Celsius"
"O=CC1=CN=C(S1)C1=CC=CS1","-","EN300-102141","4033","2-(thiophen-2-yl)-1,3-thiazole-5-carbaldehyde","-","A55638","25489863","-","-","113.0 - 115.0","?C","114.0","Celsius"
"CC1=CC=CC(CNCC2=CC=CC(C)=N2)=N1","-","EN300-102142","4034","bis[(6-methylpyridin-2-yl)methyl]amine","-","A55638","25489863","-","-","44.0 - 46.0","?C","45.0","Celsius"
"CC1=NC(N2C=CC=N2)=C(C)C(Cl)=N1","-","EN300-102144","4035","4-chloro-2,5-dimethyl-6-(1H-pyrazol-1-yl)pyrimidine","-","A55638","25489863","-","-","61.0 - 63.0","?C","62.0","Celsius"
"CSC=CC(O)=O","-","EN300-102146","4036","3-(methylsulfanyl)prop-2-enoic acid","-","A55638","25489863","-","-","118.0 - 120.0","?C","119.0","Celsius"
"COC(=O)CN(C)C1=NC=C(Br)C=C1","-","EN300-102148","4038","methyl 2-[(5-bromopyridin-2-yl)(methyl)amino]acetate","-","A55638","25489863","-","-","92.0 - 94.0","?C","93.0","Celsius"
"OC(=O)C1=CC(OCCOC2=NC=CC(=C2)C(O)=O)=NC=C1","-","EN300-102151","4040","2-{2-[(4-carboxypyridin-2-yl)oxy]ethoxy}pyridine-4-carboxylic acid","-","A55638","25489863","-","-","269.0 - 271.0","?C","270.0","Celsius"
"[O-][N+](=O)C1=CC2=C(OC(CCl)=N2)C=C1","-","EN300-102161","4041","2-(chloromethyl)-5-nitro-1,3-benzoxazole","-","A55638","25489863","-","-","115.0 - 117.0","?C","116.0","Celsius"
"CN1C=C(C=N1)C1=NC(C(O)=O)=C(C)O1","-","EN300-102163","4043","5-methyl-2-(1-methyl-1H-pyrazol-4-yl)-1,3-oxazole-4-carboxylic acid","-","A55638","25489863","-","-","249.0 - 251.0","?C","250.0","Celsius"
"OC(=O)C1=CN(C(=O)C=C1)C1=CC=C(F)C=C1","-","EN300-102168","4045","1-(4-fluorophenyl)-6-oxo-1,6-dihydropyridine-3-carboxylic acid","-","A55638","25489863","-","-","299.0 - 301.0","?C","300.0","Celsius"
"OC(=O)C1=CN(C(=O)C=C1)C1=C(F)C=CC=C1","-","EN300-102171","4046","1-(2-fluorophenyl)-6-oxo-1,6-dihydropyridine-3-carboxylic acid","-","A55638","25489863","-","-","249.0 - 251.0","?C","250.0","Celsius"
"CNC1=C(C=C(C=C1)[N+]([O-])=O)C(O)=O","3484-33-1","EN300-10218","4047","2-(methylamino)-5-nitrobenzoic acid","-","A55638","25489863","-","-","261.0 - 263.0","?C","262.0","Celsius"
"CC1=C(F)C=C(Cl)C(=C1)C(=O)CCl","-","EN300-102190","4048","2-chloro-1-(2-chloro-4-fluoro-5-methylphenyl)ethan-1-one","-","A55638","25489863","-","-","36.0 - 38.0","?C","37.0","Celsius"
"[O-][N+](=O)C=CC1=CC=C(SC(F)(F)F)C=C1","-","EN300-102192","4049","1-(2-nitroethenyl)-4-[(trifluoromethyl)sulfanyl]benzene","-","A55638","25489863","-","-","136.0 - 138.0","?C","137.0","Celsius"
"CC(=O)C1=CC(=CC=C1)S(=O)(=O)N1CCC(CC1)C(O)=O","-","EN300-10221","4050","1-[(3-acetylphenyl)sulfonyl]piperidine-4-carboxylic acid","-","A55638","25489863","-","-","122.0 - 124.0","?C","123.0","Celsius"
"CC(=O)C1=CC(=CC=C1)S(=O)(=O)NCC(O)=O","-","EN300-10222","4052","{[(3-acetylphenyl)sulfonyl]amino}acetic acid","-","A55638","25489863","-","-","188.0 - 190.0","?C","189.0","Celsius"
"NC1=C2C=NC=CC2=CC=C1","-","EN300-102226","4053","isoquinolin-8-amine","-","A55638","25489863","-","-","169.0 - 171.0","?C","170.0","Celsius"
"CC1=C(C(O)=O)C(N)=C(Cl)C=C1","-","EN300-102253","4055","2-amino-3-chloro-6-methylbenzoic acid","-","A55638","25489863","-","-","119.0 - 121.0","?C","120.0","Celsius"
"CC1=NN(C(N)=C1)C1=NC(C)=NC(C)=C1","-","EN300-102257","4056","1-(2,6-dimethylpyrimidin-4-yl)-3-methyl-1H-pyrazol-5-amine","-","A55638","25489863","-","-","104.0 - 106.0","?C","105.0","Celsius"
"COC1=C(C=CC(CC#N)=C1)[N+]([O-])=O","-","EN300-102258","4057","2-(3-methoxy-4-nitrophenyl)acetonitrile","-","A55638","25489863","-","-","84.0 - 86.0","?C","85.0","Celsius"
"CC(=O)C1=CC=C(C=C1)N1C=CN=C1C","-","EN300-102259","4058","1-[4-(2-methyl-1H-imidazol-1-yl)phenyl]ethan-1-one","-","A55638","25489863","-","-","132.0 - 134.0","?C","133.0","Celsius"
"NC1=NC=C(C=CC(O)=O)C=C1","-","EN300-102260","4059","3-(6-aminopyridin-3-yl)prop-2-enoic acid","-","A55638","25489863","-","-","189.0 - 191.0","?C","190.0","Celsius"
"CC(C)(C)NS(=O)(=O)C1=CC(C(O)=O)=C(Cl)C=C1","-","EN300-102265","4061","5-(tert-butylsulfamoyl)-2-chlorobenzoic acid","-","A55638","25489863","-","-","179.0 - 181.0","?C","180.0","Celsius"
"COC1=C(C=C(N)C=N1)C(N)=O","-","EN300-102268","4062","5-amino-2-methoxypyridine-3-carboxamide","-","A55638","25489863","-","-","144.0 - 146.0","?C","145.0","Celsius"
"NC1=NC2=C(O1)C(Br)=CC(Cl)=C2","-","EN300-102274","4064","7-bromo-5-chloro-1,3-benzoxazol-2-amine","-","A55638","25489863","-","-","228.0 - 230.0","?C","229.0","Celsius"
"OC(=O)C1=CC=C(C=C1)C1=NC(=NO1)C1CC1","-","EN300-102275","4065","4-(3-cyclopropyl-1,2,4-oxadiazol-5-yl)benzoic acid","-","A55638","25489863","-","-","241.0 - 243.0","?C","242.0","Celsius"
"CC(NC(=S)NN)C1CC1","-","EN300-102276","4066","3-amino-1-(1-cyclopropylethyl)thiourea","-","A55638","25489863","-","-","68.0 - 70.0","?C","69.0","Celsius"
"C1CNC2=C(N1)C=CN=C2","-","EN300-102281","4071","1H,2H,3H,4H-pyrido[3,4-b]pyrazine","-","A55638","25489863","-","-","135.0 - 137.0","?C","136.0","Celsius"
"OC(=O)C1CC1C1CC1","-","EN300-102283","4072","2-cyclopropylcyclopropane-1-carboxylic acid","-","A55638","25489863","-","-","29.0 - 31.0","?C","30.0","Celsius"
"CCCC(C)C(N)C(O)=O","-","EN300-102284","4073","2-amino-3-methylhexanoic acid","-","A55638","25489863","-","-","259.0 - 261.0","?C","260.0","Celsius"
"COC1=CC=C(CCC(C)(N)C(O)=O)C=C1","-","EN300-102285","4074","2-amino-4-(4-methoxyphenyl)-2-methylbutanoic acid","-","A55638","25489863","-","-","303.0 - 305.0","?C","304.0","Celsius"
"N=C1NC=NN1C1=CC=CC=C1","-","EN300-102286","4075","1-phenyl-1H-1,2,4-triazol-5-amine","-","A55638","25489863","-","-","148.0 - 150.0","?C","149.0","Celsius"
"OCC1=NN=C(Cl)S1","-","EN300-102287","4076","(5-chloro-1,3,4-thiadiazol-2-yl)methanol","-","A55638","25489863","-","-","51.0 - 53.0","?C","52.0","Celsius"
"CCC1(C)CCNC(=O)CC1","-","EN300-102290","4077","5-ethyl-5-methylazepan-2-one","-","A55638","25489863","-","-","76.0 - 78.0","?C","77.0","Celsius"
"NC1=C(O)C=CC(Br)=N1","-","EN300-102298","4078","2-amino-6-bromopyridin-3-ol","-","A55638","25489863","-","-","153.0 - 155.0","?C","154.0","Celsius"
"OC(=O)C1=C(ON=C1)C1=CC=CC=C1","-","EN300-102300","4079","5-phenyl-1,2-oxazole-4-carboxylic acid","-","A55638","25489863","-","-","149.0 - 151.0","?C","150.0","Celsius"
"OC(=O)C1=CC(=CS1)C#N","-","EN300-102306","4080","4-cyanothiophene-2-carboxylic acid","-","A55638","25489863","-","-","224.0 - 226.0","?C","225.0","Celsius"
"COC1=C(OC)C=C(C=C1)C1=NNC(=C1)C(O)=O","-","EN300-102313","4082","3-(3,4-dimethoxyphenyl)-1H-pyrazole-5-carboxylic acid","-","A55638","25489863","-","-","225.0 - 227.0","?C","226.0","Celsius"
"CC1=C(Br)SC(=C1)S(Cl)(=O)=O","-","EN300-102314","4083","5-bromo-4-methylthiophene-2-sulfonyl chloride","-","A55638","25489863","-","-","35.0 - 37.0","?C","36.0","Celsius"
"CC1CCC(CC1)NS(=O)(=O)C1=CC(=C(Cl)C=C1)[N+]([O-])=O","-","EN300-10232","4084","4-chloro-N-(4-methylcyclohexyl)-3-nitrobenzenesulfonamide","-","A55638","25489863","-","-","101.0 - 103.0","?C","102.0","Celsius"
"CC1=CC2=C(CCCC2=O)C=C1","-","EN300-102330","4086","7-methyl-1,2,3,4-tetrahydronaphthalen-1-one","-","A55638","25489863","-","-","28.0 - 30.0","?C","29.0","Celsius"
"BrC1=NC=C(S1)C1=CC=CC=C1","-","EN300-102340","4087","2-bromo-5-phenyl-1,3-thiazole","-","A55638","25489863","-","-","55.0 - 57.0","?C","56.0","Celsius"
"CC(C)N(C)C1=C(F)C=C(NC(=O)C=C)C=C1","-","EN300-102348","4088","N-{3-fluoro-4-[methyl(propan-2-yl)amino]phenyl}prop-2-enamide","-","A55638","25489863","-","-","81.0 - 83.0","?C","82.0","Celsius"
"CS(=O)(=O)OC1CCCC(C1)S(C)(=O)=O","-","EN300-102349","4089","3-methanesulfonylcyclohexyl methanesulfonate","-","A55638","25489863","-","-","119.0 - 121.0","?C","120.0","Celsius"