"SMILES","CASRN","EXTERNALID","N","NAME","NAME","ARTICLEID","PUBMEDID","PAGE","TABLE","Melting Point {measured}","UNIT {Melting Point}","Melting Point {measured, converted}","UNIT {Melting Point}"
"CC(=O)C1=CC(=CC=C1)N1C(=O)C=CC1=O","-","EN300-03885","1392","1-(3-Acetyl-phenyl)-pyrrole-2,5-dione","-","A55638","25489863","-","-","104.0 - 106.0","?C","105.0","Celsius"
"CCCCC1=CC=C(C=C1)N1C(=O)C=CC1=O","-","EN300-03888","1393","1-(4-Butyl-phenyl)-pyrrole-2,5-dione","-","A55638","25489863","-","-","40.0 - 44.0","?C","42.0","Celsius"
"O=C1C=CC(=O)N1C1=C(SC2=CC=CC=C2)C=CC=C1","-","EN300-03889","1394","1-(2-Phenylsulfanyl-phenyl)-pyrrole-2,5-dione","-","A55638","25489863","-","-","51.0 - 53.0","?C","52.0","Celsius"
"CC1=CC2=C(C=C1)N=C(S2)C1=CC=C(C=C1)N1C(=O)C=CC1=O","19735-68-3","EN300-03891","1395","1-[4-(6-Methyl-benzothiazol-2-yl)-phenyl]-pyrrole-2,5-dione","-","A55638","25489863","-","-","259.0 - 261.0","?C","260.0","Celsius"
"[O-][N+](=O)C1=CC(N2C(=O)C=CC2=O)=C(Cl)C=C1","-","EN300-03898","1396","1-(2-Chloro-5-nitro-phenyl)-pyrrole-2,5-dione","-","A55638","25489863","-","-","73.0 - 75.0","?C","74.0","Celsius"
"ClC1=CC=C(SC2=C(C=CC=C2)N2C(=O)C=CC2=O)C=C1","-","EN300-03899","1397","1-[2-(4-Chloro-phenylsulfanyl)-phenyl]-pyrrole-2,5-dione","-","A55638","25489863","-","-","54.0 - 56.0","?C","55.0","Celsius"
"O=C1C=CC(=O)N1CCC1=CC=CC=C1","6943-90-4","EN300-03900","1398","1-Phenethyl-pyrrole-2,5-dione","-","A55638","25489863","-","-","109.0 - 111.0","?C","110.0","Celsius"
"ClC1=NC(Cl)=C(Cl)C(Cl)=C1C#N","17824-82-7","EN300-03922","1400","2,4,5,6-Tetrachloro-nicotinonitrile","-","A55638","25489863","-","-","148.0 - 150.0","?C","149.0","Celsius"
"CCNC1=C(C=C(C=C1)C(O)=O)[N+]([O-])=O","2788-74-1","EN300-03924","1402","4-Ethylamino-3-nitro-benzoic acid","-","A55638","25489863","-","-","239.0 - 241.0","?C","240.0","Celsius"
"COC(=O)C1=CC=C(C=C1)C(Br)Br","131852-50-1","EN300-03927","1404","4-Dibromomethyl-benzoic acid methyl ester","-","A55638","25489863","-","-","42.0 - 45.0","?C","43.5","Celsius"
"NC(=N)NC1=NC2=C(O1)C=CC=C2","39123-82-5","EN300-03928","1405","N-Benzooxazol-2-yl-guanidine","-","A55638","25489863","-","-","179.0 - 181.0","?C","180.0","Celsius"
"COC1=C(NCCC(O)=O)C=CC=C1","3334-66-5","EN300-03931","1406","3-(2-Methoxy-phenylamino)-propionic acid","-","A55638","25489863","-","-","84.0 - 86.0","?C","85.0","Celsius"
"COC1=CC=C(C=C1)C(=O)NCC(O)=O","13214-64-7","EN300-03934","1408","(4-Methoxy-benzoylamino)-acetic acid","-","A55638","25489863","-","-","165.0 - 167.0","?C","166.0","Celsius"
"NNC(=O)C1=C(Cl)C2=C(S1)C=C(F)C=C2","-","EN300-03935","1409","3-Chloro-6-fluoro-benzo[b]thiophene-2-carboxylic acid hydrazide","-","A55638","25489863","-","-","239.0 - 241.0","?C","240.0","Celsius"
"CCOC(=O)C(=O)CC1=NC2=C(C=CC=C2)C=C1","13119-76-1","EN300-03938","1410","2-Oxo-3-quinolin-2-yl-propionic acid ethyl ester","-","A55638","25489863","-","-","130.0 - 132.0","?C","131.0","Celsius"
"OC(=O)CCNC(=O)C1=C(Cl)C=CC=C1","-","EN300-03939","1411","3-(2-Chloro-benzoylamino)-propionic acid","-","A55638","25489863","-","-","82.0 - 84.0","?C","83.0","Celsius"
"COC1=C(OC)C=C(C=C1)C(=O)NCC(O)=O","59893-89-9","EN300-03946","1412","(3,4-Dimethoxy-benzoylamino)-acetic acid","-","A55638","25489863","-","-","198.0 - 200.0","?C","199.0","Celsius"
"OC(=O)CNC(=O)C1=CC=C(C=C1)C1=CC=CC=C1","75446-59-2","EN300-03948","1413","[(Biphenyl-4-carbonyl)-amino]-acetic acid","-","A55638","25489863","-","-","220.0 - 222.0","?C","221.0","Celsius"
"COC(=O)C1=CC(NS(=O)(=O)C2=CC=CS2)=CC(NS(=O)(=O)C2=CC=CS2)=C1","-","EN300-03949","1414","3,5-Bis-(thiophene-2-sulfonylamino)-benzoic acid methyl ester","-","A55638","25489863","-","-","251.0 - 253.0","?C","252.0","Celsius"
"OC(=O)C1=C(NC(=O)C2=CC=CO2)C=CC=C1","-","EN300-03951","1415","2-[(Furan-2-carbonyl)-amino]-benzoic acid","-","A55638","25489863","-","-","208.0 - 210.0","?C","209.0","Celsius"
"OC(=O)C(CC1=CC=CC=C1)NC(=O)C1=CC=CS1","-","EN300-03952","1416","3-Phenyl-2-[(thiophene-2-carbonyl)-amino]-propionic acid","-","A55638","25489863","-","-","202.0 - 204.0","?C","203.0","Celsius"
"ClC1=NS(=O)(=O)C2=C1C=CC=C2","567-19-1","EN300-03953","1417","3-Chloro-benzo[d]isothiazole 1,1-dioxide","-","A55638","25489863","-","-","121.0 - 123.0","?C","122.0","Celsius"
"CC1=CC(=CC(C)=C1CC#N)C(C)(C)C","84803-57-6","EN300-03962","1419","(4-tert-Butyl-2,6-dimethyl-phenyl)-acetonitrile","-","A55638","25489863","-","-","84.0 - 86.0","?C","85.0","Celsius"
"CN1N(C(=O)C(NC(=S)NC2=C(C)N(C)N(C2=O)C2=CC=CC=C2)=C1C)C1=CC=CC=C1","26084-35-5","EN300-03966","1420","1,3-Bis-(1,5-dimethyl-3-oxo-2-phenyl-2,3-dihydro-1H-pyrazol-4-yl)-thiourea","-","A55638","25489863","-","-","93.0 - 95.0","?C","94.0","Celsius"
"ClC1=NC(=O)C2=C(S1)C=CC=C2","7742-71-4","EN300-03968","1421","2-Chloro-benzo[e][1,3]thiazin-4-one","-","A55638","25489863","-","-","108.0 - 110.0","?C","109.0","Celsius"
"O=C1CSC(N1)=CC1=NC2=C(S1)C=CC=C2","-","EN300-03973","1422","2-Benzothiazol-2-ylmethylene-thiazolidin-4-one","-","A55638","25489863","-","-","186.0 - 188.0","?C","187.0","Celsius"
"COC1=C(C=CC=C1)N1C(=O)C=CC1=O","17392-68-6","EN300-03980","1424","1-(2-Methoxy-phenyl)-pyrrole-2,5-dione","-","A55638","25489863","-","-","90.0 - 91.0","?C","90.5","Celsius"
"O=C1C=CC(=O)N1C1=CC2=C(C=CC=C2)C=C1","6637-45-2","EN300-03981","1425","1-Naphthalen-2-yl-pyrrole-2,5-dione","-","A55638","25489863","-","-","120.0 - 124.0","?C","122.0","Celsius"
"[O-][N+](=O)C1=CC(=CC=C1)N1C(=O)C=CC1=O","7300-93-8","EN300-03982","1426","1-(3-Nitro-phenyl)-pyrrole-2,5-dione","-","A55638","25489863","-","-","129.0 - 131.0","?C","130.0","Celsius"
"CC1=CC=C(C=C1)N1C(=O)C=CC1=O","1631-28-3","EN300-03983","1427","1-p-Tolyl-pyrrole-2,5-dione","-","A55638","25489863","-","-","151.0 - 153.0","?C","152.0","Celsius"
"FC1=CC=C(C=C1)N1C(=O)C=CC1=O","6633-22-3","EN300-03984","1428","1-(4-Fluoro-phenyl)-pyrrole-2,5-dione","-","A55638","25489863","-","-","160.0 - 162.0","?C","161.0","Celsius"
"CC1=C(C=CC=C1Cl)N1C(=O)C=CC1=O","58670-25-0","EN300-03986","1429","1-(3-Chloro-2-methyl-phenyl)-pyrrole-2,5-dione","-","A55638","25489863","-","-","68.0 - 70.0","?C","69.0","Celsius"
"ClC1=CC(=CC=C1)N1C(=O)C=CC1=O","1204-35-9","EN300-03991","1430","1-(3-Chloro-phenyl)-pyrrole-2,5-dione","-","A55638","25489863","-","-","86.0 - 88.0","?C","87.0","Celsius"
"FC(F)(F)C1=CC(=CC=C1)N1C(=O)C=CC1=O","53629-19-9","EN300-03992","1431","1-(3-Trifluoromethyl-phenyl)-pyrrole-2,5-dione","-","A55638","25489863","-","-","67.0 - 69.0","?C","68.0","Celsius"
"O=C1C=CC(=O)N1C1=C2C=CC=CC2=CC=C1","3369-39-9","EN300-03996","1432","1-Naphthalen-1-yl-pyrrole-2,5-dione","-","A55638","25489863","-","-","103.0 - 105.0","?C","104.0","Celsius"
"NC(=NO)C1=C(Cl)C=CC=C1","29568-74-9","EN300-03998","1433","2-Chloro-N-hydroxy-benzamidine","-","A55638","25489863","-","-","87.0 - 91.0","?C","89.0","Celsius"
"CC1=C(C=CC=C1)C(N)=NO","40312-14-9","EN300-03999","1434","N-Hydroxy-2-methyl-benzamidine","-","A55638","25489863","-","-","81.0 - 83.0","?C","82.0","Celsius"
"CCOC=C1C(=O)N(C(=O)C2=C1C=CC=C2)C1=NC=C(Cl)C=C1","-","EN300-04002","1436","2-(5-Chloro-pyridin-2-yl)-4-ethoxymethylene-4H-isoquinoline-1,3-dione","-","A55638","25489863","-","-","200.0 - 202.0","?C","201.0","Celsius"
"CCOC=C1C(=O)N(C(=O)C2=C1C=CC=C2)C1=CC=C(OCC)C=C1","-","EN300-04006","1437","4-Ethoxymethylene-2-(4-ethoxy-phenyl)-4H-isoquinoline-1,3-dione","-","A55638","25489863","-","-","175.0 - 177.0","?C","176.0","Celsius"
"CCOC=C1C(=O)N(C(=O)C2=C1C=CC=C2)C1=NC=CC=C1","-","EN300-04011","1438","4-Ethoxymethylene-2-pyridin-2-yl-4H-isoquinoline-1,3-dione","-","A55638","25489863","-","-","231.0 - 233.0","?C","232.0","Celsius"
"CCOC(=O)CC(=O)C1=C(C)C(C(=O)OCC)=C(C)N1","963-69-9","EN300-04012","1439","5-(2-Ethoxycarbonyl-acetyl)-2,4-dimethyl-1H-pyrrole-3-carboxylic acid ethyl ester","-","A55638","25489863","-","-","141.0 - 143.0","?C","142.0","Celsius"
"ClCC1NS(=O)(=O)N=C2CCCCCN12","-","EN300-04014","1440","4-Chloromethyl-3,4,6,7,8,9-hexahydro-5H-2-thia-1,3,4a-triaza-benzocycloheptene 2,2-dioxide","-","A55638","25489863","-","-","181.0 - 183.0","?C","182.0","Celsius"
"ClC1=CC(C#N)=C(C=C1)N=C=O","64411-72-9","EN300-04017","1441","5-chloro-2-isocyanatobenzonitrile","-","A55638","25489863","-","-","71.0 - 75.0","?C","73.0","Celsius"
"OC(=O)CC1=CSC(=N1)C1=NC=CC=C1","-","EN300-04018","1442","(2-pyridin-2-yl-1,3-thiazol-4-yl)acetic acid","-","A55638","25489863","-","-","140.0 - 147.0","?C","144.0","Celsius"
"CC1=CC=C(S1)C(=O)NCC(O)=O","-","EN300-04021","1443","[(5-Methyl-thiophene-2-carbonyl)-amino]-acetic acid","-","A55638","25489863","-","-","66.0 - 68.0","?C","67.0","Celsius"
"SC1=NC2=C(O1)C=CC(Cl)=C2","22876-19-3","EN300-04022","1444","5-chloro-benzooxazole-2-thiol","-","A55638","25489863","-","-","277.0 - 279.0","?C","278.0","Celsius"
"CN1C(=O)N(C)C(=O)C(C(=O)CCl)=C1N","67130-66-9","EN300-04023","1445","6-Amino-5-(2-chloro-acetyl)-1,3-dimethyl-1H-pyrimidine-2,4-dione","-","A55638","25489863","-","-","185.0 - 187.0","?C","186.0","Celsius"
"ClC1=C2OC3=C(C=CC=C3)C2=NC=N1","39876-88-5","EN300-04036","1446","4-Chloro-benzo[4,5]furo[3,2-d]pyrimidine","-","A55638","25489863","-","-","144.0 - 146.0","?C","145.0","Celsius"
"CC1(CCC2=CC=CC=C2)NC(=O)NC1=O","-","EN300-04038","1447","5-Methyl-5-phenethyl-imidazolidine-2,4-dione","-","A55638","25489863","-","-","179.0 - 181.0","?C","180.0","Celsius"
"CN1C2=C(C=CC=C2)C(C=O)=C1C1=CC=CC=C1","1757-72-8","EN300-04041","1448","1-Methyl-2-phenyl-1H-indole-3-carbaldehyde","-","A55638","25489863","-","-","125.0 - 127.0","?C","126.0","Celsius"
"COC1=C(OC(C)C)C=CC(=C1)C(O)=O","3535-33-9","EN300-04043","1449","4-Isopropoxy-3-methoxy-benzoic acid","-","A55638","25489863","-","-","140.0 - 142.0","?C","141.0","Celsius"
"CCCOC1=C(OC)C=C(C=C1)C(O)=O","3535-32-8","EN300-04044","1450","3-Methoxy-4-propoxy-benzoic acid","-","A55638","25489863","-","-","182.0 - 184.0","?C","183.0","Celsius"
"COC1=C(OCCC(C)C)C=CC(=C1)C(O)=O","-","EN300-04045","1451","3-Methoxy-4-(3-methyl-butoxy)-benzoic acid","-","A55638","25489863","-","-","92.0 - 94.0","?C","93.0","Celsius"
"COC1=C(OCC2=C(Cl)C=CC=C2)C=CC(=C1)C(O)=O","113457-27-5","EN300-04046","1452","4-(2-Chloro-benzyloxy)-3-methoxy-benzoic acid","-","A55638","25489863","-","-","143.0 - 145.0","?C","144.0","Celsius"
"CCCCCCOC1=C(OC)C=C(C=C1)C(O)=O","79294-58-9","EN300-04047","1453","4-Hexyloxy-3-methoxy-benzoic acid","-","A55638","25489863","-","-","122.0 - 124.0","?C","123.0","Celsius"
"COC1=C(OCC2=CC=CC=C2)C=CC(=C1)C(O)=O","1486-53-9","EN300-04048","1454","4-Benzyloxy-3-methoxy-benzoic acid","-","A55638","25489863","-","-","174.0 - 176.0","?C","175.0","Celsius"
"NNC(=S)NC1CC1","122813-75-6","EN300-04049","1455","N-cyclopropylhydrazinecarbothioamide","-","A55638","25489863","-","-","100.0 - 102.0","?C","101.0","Celsius"
"COC1=CC=C(C=C1)C(=O)NC1=C(C(O)=O)C2=C(CCCC2)S1","-","EN300-04055","1456","2-(4-Methoxy-benzoylamino)-4,5,6,7-tetrahydro-benzo[b]thiophene-3-carboxylic acid","-","A55638","25489863","-","-","216.0 - 220.0","?C","218.0","Celsius"
"CC(=O)C1=CC=C(C=C1)S(N)(=O)=O","1565-17-9","EN300-04056","1457","4-Acetyl-benzenesulfonamide","-","A55638","25489863","-","-","178.0 - 180.0","?C","179.0","Celsius"
"COC1=C(C=C(C=C1)C(O)=O)S(=O)(=O)NC1=CC=C(Br)C=C1","-","EN300-04061","1458","3-(4-Bromo-phenylsulfamoyl)-4-methoxy-benzoic acid","-","A55638","25489863","-","-","257.0 - 259.0","?C","258.0","Celsius"
"COC1=CC=C(C=C1)C1(NC(=O)NC1=O)C1=CC=C(OC)C=C1","2402-44-0","EN300-04062","1459","5,5-Bis-(4-methoxy-phenyl)-imidazolidine-2,4-dione","-","A55638","25489863","-","-","237.0 - 239.0","?C","238.0","Celsius"
"FC1=CC=C(CN2C(S)=NN=C2C2=CC(=CC=C2)S(=O)(=O)N2CCOCC2)C=C1","-","EN300-04069","1460","4-(4-Fluoro-benzyl)-5-[3-(morpholine-4-sulfonyl)-phenyl]-4H-[1,2,4]triazole-3-thiol","-","A55638","25489863","-","-","231.0 - 233.0","?C","232.0","Celsius"
"OC(=O)CCC1=NC2=C(C=CC(=C2)C(F)(F)F)N(CC2=CC=CC=C2)C1=O","-","EN300-04074","1461","3-(4-Benzyl-3-oxo-7-trifluoromethyl-3,4-dihydro-quinoxalin-2-yl)-propionic acid","-","A55638","25489863","-","-","171.0 - 173.0","?C","172.0","Celsius"
"CC1=CC=C(C=C1)C(=O)NC1=CC(C=O)=CC=C1","-","EN300-04078","1462","N-(3-Formyl-phenyl)-4-methyl-benzamide","-","A55638","25489863","-","-","130.0 - 132.0","?C","131.0","Celsius"
"CC1=CC2=C(C=C1)C=C(C=O)C(Cl)=N2","68236-21-5","EN300-04079","1463","2-Chloro-7-methyl-quinoline-3-carbaldehyde","-","A55638","25489863","-","-","148.0 - 150.0","?C","149.0","Celsius"
"CC(=O)CN1C(=O)C2=C(C=CC=C2)S1(=O)=O","40506-05-6","EN300-04080","1464","1,1-Dioxo-2-(2-oxo-propyl)-1,2-dihydro-1lambda*6*-benzo[d]isothiazol-3-one","-","A55638","25489863","-","-","144.0 - 146.0","?C","145.0","Celsius"
"CCOC=C1C(=O)N(C(=O)C2=C1C=CC=C2)C1=CC(=CC=C1)C(F)(F)F","-","EN300-04083","1465","4-Ethoxymethylene-2-(3-trifluoromethyl-phenyl)-4H-isoquinoline-1,3-dione","-","A55638","25489863","-","-","194.0 - 196.0","?C","195.0","Celsius"
"CC1=CC(C=O)=C(C)N1C1=CC=C(C)C=C1","327060-71-9","EN300-04086","1466","2,5-Dimethyl-1-p-tolyl-1H-pyrrole-3-carbaldehyde","-","A55638","25489863","-","-","102.0 - 104.0","?C","103.0","Celsius"
"CCCCN1C(N)=CC(=O)N(C)C1=O","53681-50-8","EN300-04088","1467","6-Amino-1-butyl-3-methyl-1H-pyrimidine-2,4-dione","-","A55638","25489863","-","-","92.0 - 94.0","?C","93.0","Celsius"
"CC(C)(C)NC(=O)NC(=O)CCl","4791-27-9","EN300-04089","1468","1-tert-Butyl-3-(2-chloro-acetyl)-urea","-","A55638","25489863","-","-","109.0 - 112.0","?C","110.0","Celsius"
"OC(=O)CCNS(=O)(=O)C1=CC(=CC=C1)C(F)(F)F","-","EN300-04090","1469","3-(3-Trifluoromethyl-benzenesulfonylamino)-propionic acid","-","A55638","25489863","-","-","113.0 - 115.0","?C","114.0","Celsius"
"CCCCCCOC1=C(OC)C=C(C=O)C=C1","61096-84-2","EN300-04096","1470","4-Hexyloxy-3-methoxy-benzaldehyde","-","A55638","25489863","-","-","38.0 - 42.0","?C","40.0","Celsius"
"CCN(CC)S(=O)(=O)C1=CC(=CC=C1)C(=O)NC(C(C)C)C(O)=O","-","EN300-04110","1471","2-(3-Diethylsulfamoyl-benzoylamino)-3-methyl-butyric acid","-","A55638","25489863","-","-","110.0 - 112.0","?C","111.0","Celsius"
"CC(C)C(NC(=O)C1=CC=CO1)C(O)=O","-","EN300-04112","1472","2-[(Furan-2-carbonyl)-amino]-3-methyl-butyric acid","-","A55638","25489863","-","-","103.0 - 105.0","?C","104.0","Celsius"
"CCN1C(=O)N(CC2=CC=CC=C2)C(N)=C(C(=O)CCl)C1=O","-","EN300-04113","1473","6-Amino-1-benzyl-5-(2-chloro-acetyl)-3-ethyl-1H-pyrimidine-2,4-dione","-","A55638","25489863","-","-","115.0 - 117.0","?C","116.0","Celsius"
"CCC(=O)NN","5818-15-5","EN300-04114","1474","Propionic acid hydrazide","-","A55638","25489863","-","-","24.0 - 26.0","?C","25.0","Celsius"
"CC1(NC(=O)NC1=O)C1=CC=NC=C1","6294-54-8","EN300-04115","1475","5-Methyl-5-pyridin-4-yl-imidazolidine-2,4-dione","-","A55638","25489863","-","-","231.0 - 233.0","?C","232.0","Celsius"
"CCOC(=O)C1=C(C)C(C(O)=O)=C(C)N1","5408-10-6","EN300-04127","1476","3,5-Dimethyl-1H-pyrrole-2,4-dicarboxylic acid 2-ethyl ester","-","A55638","25489863","-","-","103.0 - 105.0","?C","104.0","Celsius"
"CC1=NN=C(NN)NC1=O","38736-23-1","EN300-04131","1477","3-Hydrazino-6-methyl-4H-[1,2,4]triazin-5-one","-","A55638","25489863","-","-","237.0 - 239.0","?C","238.0","Celsius"
"COC1=C(OCC2=CC=C(Cl)C=C2)C=CC(=C1)C(O)=O","-","EN300-04136","1478","4-(4-Chloro-benzyloxy)-3-methoxy-benzoic acid","-","A55638","25489863","-","-","221.0 - 223.0","?C","222.0","Celsius"
"OC(=O)CSC1=C2C(SC=C2C2=CC=CC=C2)=NC=N1","-","EN300-04141","1480","(5-Phenyl-thieno[2,3-d]pyrimidin-4-ylsulfanyl)-acetic acid","-","A55638","25489863","-","-","186.0 - 188.0","?C","187.0","Celsius"
"FC1=CC2=C(OC=C(C=O)C2=O)C=C1","69155-76-6","EN300-04148","1481","6-Fluoro-4-oxo-4H-chromene-3-carbaldehyde","-","A55638","25489863","-","-","95.0 - 97.0","?C","96.0","Celsius"
"CC1=C(C)C=C(C=C1)C1=CSC(NC(=O)CCl)=N1","-","EN300-04150","1482","2-Chloro-N-[4-(3,4-dimethyl-phenyl)-thiazol-2-yl]-acetamide","-","A55638","25489863","-","-","179.0 - 181.0","?C","180.0","Celsius"
"CN(C)S(=O)(=O)C1=CC(NC(=S)NN)=CC=C1","-","EN300-04152","1483","N-{3-[(dimethylamino)sulfonyl]phenylhydrazinecarbothioamide","-","A55638","25489863","-","-","155.0 - 157.0","?C","156.0","Celsius"
"OC(=O)C1=C(SCC(=O)NC2CCCCCCC2)C=CC=C1","-","EN300-04161","1484","2-Cyclooctylcarbamoylmethylsulfanyl-benzoic acid","-","A55638","25489863","-","-","168.0 - 170.0","?C","169.0","Celsius"
"CC(C)C1CCC(C)CC1OC(=O)CSC1=C(C=CC=C1)C(O)=O","-","EN300-04162","1485","2-(2-Isopropyl-5-methyl-cyclohexyloxycarbonylmethylsulfanyl)-benzoic acid","-","A55638","25489863","-","-","137.0 - 139.0","?C","138.0","Celsius"
"OC(=O)C1=C(SCC(=O)N2CCCC2)C=CC=C1","-","EN300-04165","1486","2-(2-Oxo-2-pyrrolidin-1-yl-ethylsulfanyl)-benzoic acid","-","A55638","25489863","-","-","115.0 - 117.0","?C","116.0","Celsius"
"CN(C1CCCCC1)C(=O)CSC1=C(C=CC=C1)C(O)=O","-","EN300-04167","1487","2-[(Cyclohexyl-methyl-carbamoyl)-methylsulfanyl]-benzoic acid","-","A55638","25489863","-","-","102.0 - 104.0","?C","103.0","Celsius"
"COC1=CC2=C(C=C1)N=C(C=C2C(O)=O)C1=CC=CC=C1","32795-58-7","EN300-04172","1488","6-Methoxy-2-phenyl-quinoline-4-carboxylic acid","-","A55638","25489863","-","-","237.0 - 239.0","?C","238.0","Celsius"
"CC(=O)NC(CC(O)=O)C1=CC=CC=C1","40638-98-0","EN300-04175","1489","3-Acetylamino-3-phenyl-propionic acid","-","A55638","25489863","-","-","165.0 - 167.0","?C","166.0","Celsius"
"CC1=CC=C(NCCC#N)C=C1","1077-24-3","EN300-04180","1490","3-p-Tolylamino-propionitrile","-","A55638","25489863","-","-","110.0 - 112.0","?C","111.0","Celsius"
"CC1=CC=C(C=C1)C1=C(CC(O)=O)SC(N)=N1","-","EN300-04185","1491","(2-Amino-4-p-tolyl-thiazol-5-yl)-acetic acid","-","A55638","25489863","-","-","218.0 - 222.0","?C","220.0","Celsius"
"NC1=C(NCC2=CC=CC=C2)C=CC(Cl)=C1","39235-92-2","EN300-04186","1492","N*1*-Benzyl-4-chloro-benzene-1,2-diamine","-","A55638","25489863","-","-","77.0 - 81.0","?C","79.0","Celsius"
"CC1(C)NC(=O)N(CC(O)=O)C1=O","-","EN300-04188","1493","(4,4-Dimethyl-2,5-dioxo-imidazolidin-1-yl)-acetic acid","-","A55638","25489863","-","-","167.0 - 169.0","?C","168.0","Celsius"
"O=C1CNC2=C(N1)C=CC=C2","59564-59-9","EN300-04190","1494","3,4-Dihydro-1H-quinoxalin-2-one","-","A55638","25489863","-","-","119.0 - 121.0","?C","120.0","Celsius"
"CC(=O)CC(=O)NC1=CC(C)=CC=C1","25233-46-9","EN300-04191","1495","3-Oxo-N-m-tolyl-butyramide","-","A55638","25489863","-","-","57.0 - 59.0","?C","58.0","Celsius"
"COC1=CC=C(C=C1)N1C(C)=CC(C=O)=C1C","347331-30-0","EN300-04192","1496","1-(4-Methoxy-phenyl)-2,5-dimethyl-1H-pyrrole-3-carbaldehyde","-","A55638","25489863","-","-","133.0 - 135.0","?C","134.0","Celsius"
"CC(C)C(NS(=O)(=O)C1=CC=C(C)C=C1)C(O)=O","-","EN300-04198","1497","3-Methyl-2-(toluene-4-sulfonylamino)-butyric acid","-","A55638","25489863","-","-","167.0 - 169.0","?C","168.0","Celsius"
"NC1=NC(C2=CC=CS2)=C(S1)C1=CC=CS1","-","EN300-04205","1498","4,5-Di-thiophen-2-yl-thiazol-2-ylamine","-","A55638","25489863","-","-","139.0 - 141.0","?C","140.0","Celsius"
"CN1C=NN=C1SC1=C(C=C(C=O)C=C1)[N+]([O-])=O","-","EN300-04206","1499","4-(4-Methyl-4H-[1,2,4]triazol-3-ylsulfanyl)-3-nitro-benzaldehyde","-","A55638","25489863","-","-","171.0 - 173.0","?C","172.0","Celsius"
"C=CCN1C(=O)C(=O)C2=C1C=CC=C2","830-74-0","EN300-04207","1500","1-Allyl-1H-indole-2,3-dione","-","A55638","25489863","-","-","108.0 - 110.0","?C","109.0","Celsius"
"CCCCN1C(=O)NC(=O)C(NCC2=CC=CC=C2)=C1N","-","EN300-04209","1501","6-Amino-5-benzylamino-1-butyl-1H-pyrimidine-2,4-dione","-","A55638","25489863","-","-","207.0 - 209.0","?C","208.0","Celsius"
"NNC1=NC=C(C=C1)C(F)(F)F","89570-85-4","EN300-04228","1503","(5-Trifluoromethyl-pyridin-2-yl)-hydrazine","-","A55638","25489863","-","-","61.0 - 63.0","?C","62.0","Celsius"
"CC1=C(C)C=C(C=C1)S(N)(=O)=O","6326-18-7","EN300-04230","1504","3,4-Dimethyl-benzenesulfonamide","-","A55638","25489863","-","-","117.0 - 119.0","?C","118.0","Celsius"
"CC1=CC(C)=C(C=C1)S(N)(=O)=O","7467-12-1","EN300-04232","1505","2,4-Dimethyl-benzenesulfonamide","-","A55638","25489863","-","-","139.0 - 141.0","?C","140.0","Celsius"
"CC(C)(C)C1=CC=C(OCCCC(O)=O)C=C1","87411-30-1","EN300-04234","1506","4-(4-tert-Butyl-phenoxy)-butyric acid","-","A55638","25489863","-","-","53.0 - 55.0","?C","54.0","Celsius"