"SMILES","CASRN","EXTERNALID","N","NAME","NAME","ARTICLEID","PUBMEDID","PAGE","TABLE","Melting Point {measured}","UNIT {Melting Point}","Melting Point {measured, converted}","UNIT {Melting Point}"
"CC(=O)SC(C(O)=O)C1=CC=CC=C1","-","EN300-106057","4955","2-(acetylsulfanyl)-2-phenylacetic acid","-","A55638","25489863","-","-","79.0 - 81.0","?C","80.0","Celsius"
"CN(C)C1=CC(OC2=CC=C(C=C2)C(N)=S)=CC=C1","-","EN300-106068","4959","4-[3-(dimethylamino)phenoxy]benzene-1-carbothioamide","-","A55638","25489863","-","-","182.0 - 184.0","?C","183.0","Celsius"
"OCC1=NOC(=N1)C1=CC(Cl)=CC=C1","-","EN300-106069","4960","[5-(3-chlorophenyl)-1,2,4-oxadiazol-3-yl]methanol","-","A55638","25489863","-","-","103.0 - 105.0","?C","104.0","Celsius"
"CCOCCS(=O)(=O)NCC(O)=O","-","EN300-106070","4961","2-[(2-ethoxyethane)sulfonamido]acetic acid","-","A55638","25489863","-","-","63.0 - 65.0","?C","64.0","Celsius"
"OC1=C(O)C(Br)=CC(C=O)=C1","-","EN300-106071","4962","3-Bromo-4,5-dihydroxybenzaldehyde","-","A55638","25489863","-","-","219.0 - 221.0","?C","220.0","Celsius"
"CC(CC(N)=NO)N(C)C(=O)OC(C)(C)C","-","EN300-106072","4963","tert-butyl N-[1-(N'-hydroxycarbamimidoyl)propan-2-yl]-N-methylcarbamate","-","A55638","25489863","-","-","102.0 - 104.0","?C","103.0","Celsius"
"BrC(C=O)C=NC1=NC=CS1","-","EN300-106076","4964","2-bromo-3-(1,3-thiazol-2-ylimino)propanal","-","A55638","25489863","-","-","137.0 - 139.0","?C","138.0","Celsius"
"CC1=NN=C2CCC(CO)CN12","-","EN300-106077","4965","{3-methyl-5H,6H,7H,8H-[1,2,4]triazolo[4,3-a]pyridin-6-yl}methanol","-","A55638","25489863","-","-","158.0 - 160.0","?C","159.0","Celsius"
"OC1CCCOC2=C1C=CC(Br)=C2","-","EN300-106087","4967","8-bromo-2,3,4,5-tetrahydro-1-benzoxepin-5-ol","-","A55638","25489863","-","-","73.0 - 75.0","?C","74.0","Celsius"
"OC(=O)CCNC(=O)C1=CC2=C(NN=N2)C=C1","-","EN300-106088","4968","3-(1H-1,2,3-benzotriazol-5-ylformamido)propanoic acid","-","A55638","25489863","-","-","229.0 - 231.0","?C","230.0","Celsius"
"OC(=O)C1=CC(NC(=O)CC2SC(=NC2=O)N2CCCCC2)=CC=C1","-","EN300-10609","4969","3-{[(4-oxo-2-piperidin-1-yl-4,5-dihydro-1,3-thiazol-5-yl)acetyl]amino}benzoic acid","-","A55638","25489863","-","-","188.0 - 190.0","?C","189.0","Celsius"
"CC(C)CN1N=C(C)C(C(O)=O)=C1Cl","-","EN300-10610","4970","5-chloro-1-isobutyl-3-methyl-1H-pyrazole-4-carboxylic acid","-","A55638","25489863","-","-","128.0 - 130.0","?C","129.0","Celsius"
"COC1=C(OC(C)C)C(Cl)=CC(=C1)C#N","-","EN300-10612","4971","3-chloro-4-isopropoxy-5-methoxybenzonitrile","-","A55638","25489863","-","-","84.0 - 86.0","?C","85.0","Celsius"
"CN(CC(=O)NC1=C(Cl)C=CC=C1Cl)C(=O)CCl","-","EN300-10613","4972","2-chloro-N-{2-[(2,6-dichlorophenyl)amino]-2-oxoethyl}-N-methylacetamide","-","A55638","25489863","-","-","188.0 - 190.0","?C","189.0","Celsius"
"OC(=O)C(N1CCCC1)C1=CC=C(Br)C=C1","-","EN300-106139","4973","2-(4-bromophenyl)-2-(pyrrolidin-1-yl)acetic acid","-","A55638","25489863","-","-","214.0 - 216.0","?C","215.0","Celsius"
"CC1CCC(=C1)C(O)=O","-","EN300-106162","4975","3-methylcyclopent-1-ene-1-carboxylic acid","-","A55638","25489863","-","-","33.0 - 35.0","?C","34.0","Celsius"
"COC(=O)COC1=C2C=CC=CC2=C(C=C1)[N+]([O-])=O","-","EN300-106163","4976","methyl 2-[(4-nitronaphthalen-1-yl)oxy]acetate","-","A55638","25489863","-","-","141.0 - 143.0","?C","142.0","Celsius"
"OC(=O)C1CCCN1C(=O)C1=CC2=C(NN=N2)C=C1","-","EN300-106164","4977","1-[(1H-1,2,3-benzotriazol-5-yl)carbonyl]pyrrolidine-2-carboxylic acid","-","A55638","25489863","-","-","223.0 - 225.0","?C","224.0","Celsius"
"OC(=O)CCCNC(=O)C1=CC2=C(NN=N2)C=C1","-","EN300-106167","4978","4-(1H-1,2,3-benzotriazol-5-ylformamido)butanoic acid","-","A55638","25489863","-","-","230.0 - 232.0","?C","231.0","Celsius"
"BrC1=C(NS(=O)(=O)N2CCCC2)C=CC=C1","-","EN300-106169","4979","N-(2-bromophenyl)pyrrolidine-1-sulfonamide","-","A55638","25489863","-","-","69.0 - 71.0","?C","70.0","Celsius"
"COCCOC1=CC2=C(NC=C2)C=C1","-","EN300-106170","4980","5-(2-methoxyethoxy)-1H-indole","-","A55638","25489863","-","-","61.0 - 63.0","?C","62.0","Celsius"
"CC1=CN(N=C1)C1=C(F)C=C(C=C1)S(Cl)(=O)=O","-","EN300-106175","4981","3-fluoro-4-(4-methyl-1H-pyrazol-1-yl)benzene-1-sulfonyl chloride","-","A55638","25489863","-","-","99.0 - 101.0","?C","100.0","Celsius"
"COC(=O)C1=C(C=CC=C1F)S(Cl)(=O)=O","-","EN300-106176","4982","methyl 2-(chlorosulfonyl)-6-fluorobenzoate","-","A55638","25489863","-","-","46.0 - 48.0","?C","47.0","Celsius"
"FC1=CC2=C(SC=C2S(Cl)(=O)=O)C=C1","-","EN300-106179","4983","5-fluoro-1-benzothiophene-3-sulfonyl chloride","-","A55638","25489863","-","-","129.0 - 131.0","?C","130.0","Celsius"
"CC1=CC=C(C=C1)C1=CC(=CN=C1)C(O)=O","-","EN300-106182","4984","5-(4-methylphenyl)pyridine-3-carboxylic acid","-","A55638","25489863","-","-","266.0 - 268.0","?C","267.0","Celsius"
"CC1=NC(Cl)=NC(N)=C1","-","EN300-106183","4985","2-chloro-6-methylpyrimidin-4-amine","-","A55638","25489863","-","-","220.0 - 222.0","?C","221.0","Celsius"
"NC1=CC2=C(C=C1)N=C(CC1=CC=CC=C1)O2","-","EN300-106185","4986","2-benzyl-1,3-benzoxazol-6-amine","-","A55638","25489863","-","-","104.0 - 106.0","?C","105.0","Celsius"
"CC(O)(C1=CC=C(O)C=C1)C(F)(F)F","-","EN300-106191","4987","4-(1,1,1-trifluoro-2-hydroxypropan-2-yl)phenol","-","A55638","25489863","-","-","118.0 - 120.0","?C","119.0","Celsius"
"CC1=NC2=C(C=CC=C2)C(S)=N1","6484-28-2","EN300-10620","4989","2-methylquinazoline-4-thiol","-","A55638","25489863","-","-","211.0 - 213.0","?C","212.0","Celsius"
"COC(=O)C1=CC(NC(=O)CCl)=C(C)C=C1","54941-43-4","EN300-10622","4991","methyl 3-[(chloroacetyl)amino]-4-methylbenzoate","-","A55638","25489863","-","-","135.0 - 137.0","?C","136.0","Celsius"
"CC1SC2=C(NC1=O)C=C(C=C2)C(O)=O","-","EN300-10623","4992","2-methyl-3-oxo-3,4-dihydro-2H-1,4-benzothiazine-6-carboxylic acid","-","A55638","25489863","-","-","230.0 - 232.0","?C","231.0","Celsius"
"OC(=O)COC1=CC2=C(C=CC(=O)O2)C=C1","126424-85-9","EN300-10624","4993","[(2-oxo-2H-chromen-7-yl)oxy]acetic acid","-","A55638","25489863","-","-","213.0 - 215.0","?C","214.0","Celsius"
"NCC(O)C1=CC2=C(S1)C=CC=C2","-","EN300-106272","4996","2-amino-1-(1-benzothiophen-2-yl)ethan-1-ol","-","A55638","25489863","-","-","128.0 - 130.0","?C","129.0","Celsius"
"O=CC1=CN(N=C1)C1CCS(=O)(=O)C1","-","EN300-106275","4998","1-(1,1-dioxo-1$l^{6}-thiolan-3-yl)-1H-pyrazole-4-carbaldehyde","-","A55638","25489863","-","-","111.0 - 113.0","?C","112.0","Celsius"
"OC(=O)C1=CC2=C(C=C1)C(=O)N(CC=C)C2=O","41441-42-3","EN300-10628","4999","2-allyl-1,3-dioxoisoindoline-5-carboxylic acid","-","A55638","25489863","-","-","154.0 - 156.0","?C","155.0","Celsius"
"COC1=CC=C(C=C1)C1=CC(=CN=C1)C(O)=O","-","EN300-106285","5000","5-(4-methoxyphenyl)pyridine-3-carboxylic acid","-","A55638","25489863","-","-","278.0 - 280.0","?C","279.0","Celsius"
"CN(C1=C(N)C=CC=C1)S(C)(=O)=O","-","EN300-106291","5002","N-(2-aminophenyl)-N-methylmethanesulfonamide","-","A55638","25489863","-","-","138.0 - 140.0","?C","139.0","Celsius"
"ClC1=C(Cl)N=C2N=CC=CC2=N1","-","EN300-106294","5003","2,3-dichloropyrido[2,3-b]pyrazine","-","A55638","25489863","-","-","143.0 - 145.0","?C","144.0","Celsius"
"CSC1=C(Cl)C=C(Cl)C(=C1)C(O)=O","-","EN300-106299","5005","2,4-dichloro-5-(methylsulfanyl)benzoic acid","-","A55638","25489863","-","-","192.0 - 194.0","?C","193.0","Celsius"
"CC(OC1=CC=C(Br)C=C1)C(O)=O","32019-08-2","EN300-10630","5006","2-(4-bromophenoxy)propanoic acid","-","A55638","25489863","-","-","118.0 - 120.0","?C","119.0","Celsius"
"COC(=O)CCCOC1=C2C=CC=CC2=C(N)C=C1","-","EN300-106301","5007","methyl 4-[(4-aminonaphthalen-1-yl)oxy]butanoate","-","A55638","25489863","-","-","69.0 - 71.0","?C","70.0","Celsius"
"ClCCNC(=O)C1CCCC1","-","EN300-106313","5010","N-(2-chloroethyl)cyclopentanecarboxamide","-","A55638","25489863","-","-","72.0 - 74.0","?C","73.0","Celsius"
"CSC1=C(C=CC(C)=C1)C(O)=O","-","EN300-106315","5012","4-methyl-2-(methylsulfanyl)benzoic acid","-","A55638","25489863","-","-","176.0 - 178.0","?C","177.0","Celsius"
"ClC1=CC=CC(Cl)=C1C(=O)C1=CC=CC=C1","-","EN300-106316","5013","(2,6-dichlorophenyl)(phenyl)methanone","-","A55638","25489863","-","-","82.0 - 84.0","?C","83.0","Celsius"
"FC(F)(F)C1=NNC(=O)C=C1","-","EN300-106325","5016","6-(trifluoromethyl)-2,3-dihydropyridazin-3-one","-","A55638","25489863","-","-","125.0 - 127.0","?C","126.0","Celsius"
"NC(=O)N1CCN(CC1)C1=C(F)C=CC=C1","-","EN300-106335","5019","4-(2-fluorophenyl)piperazine-1-carboxamide","-","A55638","25489863","-","-","150.0 - 152.0","?C","151.0","Celsius"
"COC1=C(NCC2=CC=NC=C2)C=C(Br)C=C1","-","EN300-106336","5020","5-bromo-2-methoxy-N-(pyridin-4-ylmethyl)aniline","-","A55638","25489863","-","-","89.0 - 91.0","?C","90.0","Celsius"
"[O-][N+](=O)C1=NN(C=C1)C1CCCCC1=O","-","EN300-106344","5021","2-(3-nitro-1H-pyrazol-1-yl)cyclohexan-1-one","-","A55638","25489863","-","-","128.0 - 130.0","?C","129.0","Celsius"
"CCOC(=O)CC1=NC2=C(N1)C=C(C)C(C)=C2","-","EN300-106347","5022","ethyl 2-(5,6-dimethyl-1H-1,3-benzodiazol-2-yl)acetate","-","A55638","25489863","-","-","169.0 - 171.0","?C","170.0","Celsius"
"OC(=O)C1=NOC(COC2=C(Cl)C=CC=C2Cl)=C1","-","EN300-106348","5023","5-(2,6-dichlorophenoxymethyl)-1,2-oxazole-3-carboxylic acid","-","A55638","25489863","-","-","159.0 - 161.0","?C","160.0","Celsius"
"OC(=O)C1=C(C=C(C=C1)C(F)(F)F)C#N","-","EN300-106349","5024","2-cyano-4-(trifluoromethyl)benzoic acid","-","A55638","25489863","-","-","113.0 - 115.0","?C","114.0","Celsius"
"CC1=CC(=CC=C1)C1=NN=C(S)O1","66147-19-1","EN300-10635","5025","5-(3-methylphenyl)-1,3,4-oxadiazole-2-thiol","-","A55638","25489863","-","-","157.0 - 161.0","?C","159.0","Celsius"
"CN(C)C1=C(N)C(=O)NC=N1","-","EN300-106352","5026","5-amino-6-(dimethylamino)-3,4-dihydropyrimidin-4-one","-","A55638","25489863","-","-","158.0 - 160.0","?C","159.0","Celsius"
"FC1=CC(=CC=C1)C(=O)C1=CC(Br)=CC=C1","-","EN300-106356","5028","(3-bromophenyl)(3-fluorophenyl)methanone","-","A55638","25489863","-","-","65.0 - 67.0","?C","66.0","Celsius"
"NC1=C(NC2=CC=CC=C2)N=CC=C1","-","EN300-106357","5029","2-N-phenylpyridine-2,3-diamine","-","A55638","25489863","-","-","135.0 - 137.0","?C","136.0","Celsius"
"ONC(=O)C1=C(C=CC=C1)C(F)(F)F","-","EN300-106366","5030","N-hydroxy-2-(trifluoromethyl)benzamide","-","A55638","25489863","-","-","157.0 - 159.0","?C","158.0","Celsius"
"CC1(NC(=O)N(CC(O)=O)C1=O)C1=CC=CC=C1","726-88-5","EN300-10639","5032","(4-methyl-2,5-dioxo-4-phenylimidazolidin-1-yl)acetic acid","-","A55638","25489863","-","-","170.0 - 172.0","?C","171.0","Celsius"
"CC1=NC(=NC(N)=C1)N1CCOCC1","-","EN300-106390","5033","6-methyl-2-(morpholin-4-yl)pyrimidin-4-amine","-","A55638","25489863","-","-","102.0 - 104.0","?C","103.0","Celsius"
"ClC1=NC=CC(=C1)N1C=CC=N1","-","EN300-106395","5034","2-chloro-4-(1H-pyrazol-1-yl)pyridine","-","A55638","25489863","-","-","111.0 - 113.0","?C","112.0","Celsius"
"COC1=C(F)C=C(N)C(F)=C1","-","EN300-106400","5035","2,5-difluoro-4-methoxyaniline","-","A55638","25489863","-","-","80.0 - 82.0","?C","81.0","Celsius"
"CNC1=CC=C(C2=NON=C12)[N+]([O-])=O","-","EN300-106403","5037","N-methyl-7-nitro-2,1,3-benzoxadiazol-4-amine","-","A55638","25489863","-","-","257.0 - 259.0","?C","258.0","Celsius"
"ON=CC1=CN=C2C=CC=CN12","-","EN300-106404","5038","N-{imidazo[1,2-a]pyridin-3-ylmethylidene}hydroxylamine","-","A55638","25489863","-","-","183.0 - 185.0","?C","184.0","Celsius"
"CC1=C(C=C(C=C1Br)C(O)=O)S(Cl)(=O)=O","-","EN300-106407","5040","3-bromo-5-(chlorosulfonyl)-4-methylbenzoic acid","-","A55638","25489863","-","-","183.0 - 185.0","?C","184.0","Celsius"
"OC(=O)C1=CC=C(CCC(F)(F)F)C=C1","-","EN300-106413","5042","4-(3,3,3-trifluoropropyl)benzoic acid","-","A55638","25489863","-","-","211.0 - 213.0","?C","212.0","Celsius"
"CC1=CC=C(C=C1)C1=C(CC(O)=O)SC(=N1)C1=CC=CC=C1","-","EN300-106414","5043","2-[4-(4-methylphenyl)-2-phenyl-1,3-thiazol-5-yl]acetic acid","-","A55638","25489863","-","-","165.0 - 167.0","?C","166.0","Celsius"
"CC1=CSC(NC(=O)CCl)=N1","50772-53-7","EN300-10642","5044","2-chloro-N-(4-methyl-1,3-thiazol-2-yl)acetamide","-","A55638","25489863","-","-","127.0 - 129.0","?C","128.0","Celsius"
"NNC(=O)C(=O)NC1=NC=CC=C1","-","EN300-106427","5045","1-(hydrazinecarbonyl)-N-(pyridin-2-yl)formamide","-","A55638","25489863","-","-","179.0 - 181.0","?C","180.0","Celsius"
"CCC(CC1=C(Br)C=CC=C1)C(O)=O","-","EN300-106428","5046","2-[(2-bromophenyl)methyl]butanoic acid","-","A55638","25489863","-","-","67.0 - 69.0","?C","68.0","Celsius"
"CN1C(N)=NC2=C1C=CC=C2F","-","EN300-106439","5049","4-fluoro-1-methyl-1H-1,3-benzodiazol-2-amine","-","A55638","25489863","-","-","163.0 - 165.0","?C","164.0","Celsius"
"CN1C2=C(C=CC=C2)C(Br)=C1C1=CC=CC=C1","-","EN300-106444","5052","3-bromo-1-methyl-2-phenyl-1H-indole","-","A55638","25489863","-","-","59.0 - 61.0","?C","60.0","Celsius"
"FC1=CC=C(CN(C(=O)CCl)C23CC4CC(CC(C4)C2)C3)C=C1","-","EN300-10645","5053","N-1-adamantyl-2-chloro-N-(4-fluorobenzyl)acetamide","-","A55638","25489863","-","-","129.0 - 131.0","?C","130.0","Celsius"
"CC(C)CC(CCC(O)=O)C(O)=O","-","EN300-106451","5054","2-(2-methylpropyl)pentanedioic acid","-","A55638","25489863","-","-","66.0 - 68.0","?C","67.0","Celsius"
"CN1N=C(C)C(OCC(O)=O)=C1C","-","EN300-106452","5055","2-[(1,3,5-trimethyl-1H-pyrazol-4-yl)oxy]acetic acid","-","A55638","25489863","-","-","172.0 - 174.0","?C","173.0","Celsius"
"ClC1=NN=C(C=C1)C(=O)NC1CCCC1","-","EN300-106456","5056","6-chloro-N-cyclopentylpyridazine-3-carboxamide","-","A55638","25489863","-","-","139.0 - 141.0","?C","140.0","Celsius"
"ClC1=NN=C(C=C1)C(=O)NC1CCOCC1","-","EN300-106457","5057","6-chloro-N-(oxan-4-yl)pyridazine-3-carboxamide","-","A55638","25489863","-","-","152.0 - 154.0","?C","153.0","Celsius"
"CN(C)C(=O)C1=C(N)NN=C1","-","EN300-106458","5058","5-amino-N,N-dimethyl-1H-pyrazole-4-carboxamide","-","A55638","25489863","-","-","167.0 - 169.0","?C","168.0","Celsius"
"ClC1=CC=C(C=CS(Cl)(=O)=O)C=C1","-","EN300-10646","5059","2-(4-chlorophenyl)ethylenesulfonyl chloride","-","A55638","25489863","-","-","131.0 - 133.0","?C","132.0","Celsius"
"CC1=CC(C(O)=O)=C(C=C1)S(N)(=O)=O","-","EN300-106505","5064","5-methyl-2-sulfamoylbenzoic acid","-","A55638","25489863","-","-","271.0 - 273.0","?C","272.0","Celsius"
"CC1=COC(=N1)C1=CC(N)=CC=C1","-","EN300-106507","5065","3-(4-methyl-1,3-oxazol-2-yl)aniline","-","A55638","25489863","-","-","88.0 - 90.0","?C","89.0","Celsius"
"NC1=C(Cl)C(=CC(=C1)C#N)[N+]([O-])=O","-","EN300-106508","5066","3-amino-4-chloro-5-nitrobenzonitrile","-","A55638","25489863","-","-","205.0 - 207.0","?C","206.0","Celsius"
"CC(Cl)C1=NN=C(O1)C1=CC(C)=C(C)C=C1","-","EN300-106509","5067","2-(1-chloroethyl)-5-(3,4-dimethylphenyl)-1,3,4-oxadiazole","-","A55638","25489863","-","-","86.0 - 88.0","?C","87.0","Celsius"
"CC(=O)NC1=CC2=C(CCN(C2)C(=O)OC(C)(C)C)C=C1","-","EN300-106512","5068","tert-butyl 7-acetamido-1,2,3,4-tetrahydroisoquinoline-2-carboxylate","-","A55638","25489863","-","-","110.0 - 112.0","?C","111.0","Celsius"
"CCOC(=O)C1=CC2=C(NCCC2)C=C1","-","EN300-106515","5069","ethyl 1,2,3,4-tetrahydroquinoline-6-carboxylate","-","A55638","25489863","-","-","79.0 - 81.0","?C","80.0","Celsius"
"COC(=O)C1=C(Cl)N=CN=C1Cl","-","EN300-106517","5070","methyl 4,6-dichloropyrimidine-5-carboxylate","-","A55638","25489863","-","-","50.0 - 52.0","?C","51.0","Celsius"
"CC(C)(C)OC(=O)NCC1=NN=NN1","-","EN300-106520","5071","tert-butyl N-(1H-1,2,3,4-tetrazol-5-ylmethyl)carbamate","-","A55638","25489863","-","-","153.0 - 155.0","?C","154.0","Celsius"
"CC1(C)CCC2=C(C1)SC(N)=C2C(=O)N1CCOCC1","-","EN300-106521","5072","6,6-dimethyl-3-[(morpholin-4-yl)carbonyl]-4,5,6,7-tetrahydro-1-benzothiophen-2-amine","-","A55638","25489863","-","-","138.0 - 140.0","?C","139.0","Celsius"
"CCOC(=O)C1=C2NC=CN2N=C1N","-","EN300-106527","5073","ethyl 2-amino-4H-pyrazolo[1,5-a]imidazole-3-carboxylate","-","A55638","25489863","-","-","168.0 - 170.0","?C","169.0","Celsius"
"COCCNC1=NC(Cl)=NC(Cl)=N1","-","EN300-106529","5075","4,6-dichloro-N-(2-methoxyethyl)-1,3,5-triazin-2-amine","-","A55638","25489863","-","-","71.0 - 73.0","?C","72.0","Celsius"
"CCS(=O)(=O)C1=CC(=CC=C1)S(Cl)(=O)=O","-","EN300-106531","5077","3-(ethanesulfonyl)benzene-1-sulfonyl chloride","-","A55638","25489863","-","-","92.0 - 94.0","?C","93.0","Celsius"
"COC(=O)COC1=C2C=CC=CC2=C(N)C=C1","-","EN300-106547","5079","methyl 2-[(4-aminonaphthalen-1-yl)oxy]acetate","-","A55638","25489863","-","-","83.0 - 85.0","?C","84.0","Celsius"
"NS(=O)(=O)C1=NC=CN=C1","-","EN300-106548","5080","pyrazine-2-sulfonamide","-","A55638","25489863","-","-","166.0 - 168.0","?C","167.0","Celsius"
"CC(C)CC1CCC(=O)NC1=O","-","EN300-106549","5081","3-(2-methylpropyl)piperidine-2,6-dione","-","A55638","25489863","-","-","129.0 - 131.0","?C","130.0","Celsius"
"FC1=C(NC(=O)CCl)C=C(C=C1)N1N=NN=C1C1CC1","-","EN300-106550","5082","2-chloro-N-[5-(5-cyclopropyl-1H-1,2,3,4-tetrazol-1-yl)-2-fluorophenyl]acetamide","-","A55638","25489863","-","-","119.0 - 121.0","?C","120.0","Celsius"
"NC1=CC(C(O)=O)=C(Cl)N=C1","-","EN300-106551","5083","5-amino-2-chloropyridine-3-carboxylic acid","-","A55638","25489863","-","-","193.0 - 195.0","?C","194.0","Celsius"
"CC1=NN=NN1C1=CC(NC(=O)CCl)=C(F)C=C1","-","EN300-106552","5084","2-chloro-N-[2-fluoro-5-(5-methyl-1H-1,2,3,4-tetrazol-1-yl)phenyl]acetamide","-","A55638","25489863","-","-","179.0 - 181.0","?C","180.0","Celsius"
"OC(=O)C1=NC(OC2=CC(Cl)=CC=C2)=CC=C1","-","EN300-106553","5085","6-(3-chlorophenoxy)pyridine-2-carboxylic acid","-","A55638","25489863","-","-","96.0 - 98.0","?C","97.0","Celsius"
"CC1=C(C)C2=C(S1)N=CN(CC(O)=O)C2=O","-","EN300-10660","5089","(5,6-dimethyl-4-oxothieno[2,3-d]pyrimidin-3(4H)-yl)acetic acid","-","A55638","25489863","-","-","229.0 - 231.0","?C","230.0","Celsius"
"CC1=C(C)C2=C(S1)N=CN=C2N1CCC(CC1)C(O)=O","-","EN300-10662","5090","1-(5,6-dimethylthieno[2,3-d]pyrimidin-4-yl)piperidine-4-carboxylic acid","-","A55638","25489863","-","-","244.0 - 246.0","?C","245.0","Celsius"
"CC(=O)C1=CN(N=N1)C1=CC=CC=C1","-","EN300-106623","5091","1-(1-phenyl-1H-1,2,3-triazol-4-yl)ethan-1-one","-","A55638","25489863","-","-","102.0 - 104.0","?C","103.0","Celsius"
"CC1=CC(OC2=CC=C(N)C=C2)=NN1","-","EN300-106624","5092","4-[(5-methyl-1H-pyrazol-3-yl)oxy]aniline","-","A55638","25489863","-","-","189.0 - 191.0","?C","190.0","Celsius"
"NC1=C2C=C(Br)C=C(F)C2=NC=N1","-","EN300-106630","5093","6-bromo-8-fluoroquinazolin-4-amine","-","A55638","25489863","-","-","343.0 - 345.0","?C","344.0","Celsius"
"CN1N=C(Br)C2=C1N=CN=C2N","-","EN300-106669","5095","3-bromo-1-methyl-1H-pyrazolo[3,4-d]pyrimidin-4-amine","-","A55638","25489863","-","-","228.0 - 230.0","?C","229.0","Celsius"
"OCCNC1=CC=C(Br)C=C1","-","EN300-106670","5096","2-[(4-bromophenyl)amino]ethan-1-ol","-","A55638","25489863","-","-","80.0 - 82.0","?C","81.0","Celsius"
"CCOC(=O)C1=C(N)C(=NS1)C(N)=O","-","EN300-106676","5099","ethyl 4-amino-3-carbamoyl-1,2-thiazole-5-carboxylate","-","A55638","25489863","-","-","205.0 - 207.0","?C","206.0","Celsius"
"O=C1CCCC2=C1SC(=N2)C1=CC=NC=C1","-","EN300-106685","5100","2-(pyridin-4-yl)-4,5,6,7-tetrahydro-1,3-benzothiazol-7-one","-","A55638","25489863","-","-","159.0 - 161.0","?C","160.0","Celsius"
"CC1=C(SC2=C1C=CC=C2Cl)S(N)(=O)=O","-","EN300-106688","5102","7-chloro-3-methyl-1-benzothiophene-2-sulfonamide","-","A55638","25489863","-","-","261.0 - 263.0","?C","262.0","Celsius"
"COC1=C(C=CC=C1)C1C(CCC(=O)N1C1=CC=C(C)C=C1)C(O)=O","-","EN300-10669","5103","2-(2-methoxyphenyl)-1-(4-methylphenyl)-6-oxopiperidine-3-carboxylic acid","-","A55638","25489863","-","-","205.0 - 208.0","?C","206.0","Celsius"
"CC(=O)C1=CC2=C(NC(=O)C2(C)C)C=C1","-","EN300-106691","5105","5-acetyl-3,3-dimethyl-2,3-dihydro-1H-indol-2-one","-","A55638","25489863","-","-","187.0 - 189.0","?C","188.0","Celsius"
"BrC1=C(NS(=O)(=O)N2CCOCC2)C=CC=C1","-","EN300-106692","5106","N-(2-bromophenyl)morpholine-4-sulfonamide","-","A55638","25489863","-","-","81.0 - 83.0","?C","82.0","Celsius"
"COC1=CC=C(C=C1)N1C(C(CCC1=O)C(O)=O)C1=C(OC)C=CC=C1","-","EN300-10670","5107","2-(2-methoxyphenyl)-1-(4-methoxyphenyl)-6-oxopiperidine-3-carboxylic acid","-","A55638","25489863","-","-","205.0 - 208.0","?C","206.0","Celsius"