"SMILES","CASRN","EXTERNALID","N","NAME","NAME","ARTICLEID","PUBMEDID","PAGE","TABLE","Melting Point {measured}","UNIT {Melting Point}","Melting Point {measured, converted}","UNIT {Melting Point}"
"CC1=NN(C(=O)C1=NO)C1=CC=CC=C1","-","EN300-05499","1944","5-Methyl-2-phenyl-2H-pyrazole-3,4-dione 4-oxime","-","A55638","25489863","-","-","131.0 - 133.0","?C","132.0","Celsius"
"OC(=O)CNC(=O)C1=CC(=C(Cl)C=C1)[N+]([O-])=O","-","EN300-05500","1945","(4-Chloro-3-nitro-benzoylamino)-acetic acid","-","A55638","25489863","-","-","190.0 - 192.0","?C","191.0","Celsius"
"CC(C)CN1C(N)=C(C(=O)CCl)C(=O)N(C)C1=O","-","EN300-05502","1946","6-Amino-5-(2-chloro-acetyl)-1-isobutyl-3-methyl-1H-pyrimidine-2,4-dione","-","A55638","25489863","-","-","104.0 - 106.0","?C","105.0","Celsius"
"CC(Cl)C(=O)NCC1=CC=CC=C1","-","EN300-05503","1947","N-Benzyl-2-chloro-propionamide","-","A55638","25489863","-","-","75.0 - 77.0","?C","76.0","Celsius"
"CCOC1=CC=C(C=C1)C1=NN=C(N)O1","90840-51-0","EN300-05506","1948","5-(4-Ethoxy-phenyl)-[1,3,4]oxadiazol-2-ylamine","-","A55638","25489863","-","-","238.0 - 240.0","?C","239.0","Celsius"
"OC(=O)CN1C(=O)C2C3CC(C=C3)C2C1=O","-","EN300-05511","1949","(3,5-Dioxo-4-aza-tricyclo[5.2.1.0*2,6*]dec-8-en-4-yl)-acetic acid","-","A55638","25489863","-","-","146.0 - 148.0","?C","147.0","Celsius"
"ClCC(=O)NC1CCS(=O)(=O)C1","-","EN300-05512","1950","2-Chloro-N-(1,1-dioxo-tetrahydro-1lambda*6*-thiophen-3-yl)-acetamide","-","A55638","25489863","-","-","89.0 - 98.0","?C","93.5","Celsius"
"CC(=O)C1=CC(=CC=C1)S(=O)(=O)NCCC(O)=O","-","EN300-05513","1951","3-(3-Acetyl-benzenesulfonylamino)-propionic acid","-","A55638","25489863","-","-","106.0 - 110.0","?C","108.0","Celsius"
"CCOC1=CC=C(C=C1)S(=O)(=O)NCCC(O)=O","-","EN300-05514","1952","3-(4-Ethoxy-benzenesulfonylamino)-propionic acid","-","A55638","25489863","-","-","178.0 - 180.0","?C","179.0","Celsius"
"ClCC(=O)NC(=O)NC1CCCCC1","16467-50-8","EN300-05516","1953","1-(2-Chloro-acetyl)-3-cyclohexyl-urea","-","A55638","25489863","-","-","102.0 - 105.0","?C","104.0","Celsius"
"OC(=O)C1=C(SC2=NN=NN2C2=CC=CC=C2)C=CC(=C1)[N+]([O-])=O","-","EN300-05519","1954","5-Nitro-2-(1-phenyl-1H-tetrazol-5-ylsulfanyl)-benzoic acid","-","A55638","25489863","-","-","218.0 - 220.0","?C","219.0","Celsius"
"CCOC(=O)C1=C(N)SC=C1C1=CC=C(C)O1","-","EN300-05521","1955","2-Amino-4-(5-methyl-furan-2-yl)-thiophene-3-carboxylic acid ethyl ester","-","A55638","25489863","-","-","93.0 - 95.0","?C","94.0","Celsius"
"NC(=O)NC1=CC2=C(OCCO2)C=C1","-","EN300-05525","1957","(2,3-Dihydro-benzo[1,4]dioxin-6-yl)-urea","-","A55638","25489863","-","-","159.0 - 161.0","?C","160.0","Celsius"
"CC1=NC2=C(C3=C(CCC3)S2)C(Cl)=N1","300816-24-4","EN300-05528","1958","4-Chloro-6-methyl-2,3-dihydro-1H-8-thia-5,7-diaza-cyclopenta[a]indene","-","A55638","25489863","-","-","91.0 - 93.0","?C","92.0","Celsius"
"CC(Cl)C(=O)NC1=C(Cl)C=C(Cl)C=N1","-","EN300-05531","1959","2-Chloro-N-(3,5-dichloro-pyridin-2-yl)-propionamide","-","A55638","25489863","-","-","113.0 - 115.0","?C","114.0","Celsius"
"COC1=C2OC(C=O)=CC2=CC=C1","88234-77-9","EN300-05536","1960","7-Methoxy-benzofuran-2-carbaldehyde","-","A55638","25489863","-","-","45.0 - 47.0","?C","46.0","Celsius"
"OC(=O)C1=CC=C(C=C1)N1C(=O)CCC1=O","60693-33-6","EN300-05537","1961","4-(2,5-Dioxo-pyrrolidin-1-yl)-benzoic acid","-","A55638","25489863","-","-","210.0 - 212.0","?C","211.0","Celsius"
"[O-][N+](=O)C1=CC(Cl)=C(C=C1)S(Cl)(=O)=O","20201-03-0","EN300-05539","1962","2-Chloro-4-nitro-benzenesulfonyl chloride","-","A55638","25489863","-","-","75.0 - 77.0","?C","76.0","Celsius"
"CN1C(S)=NC2=C(C=CS2)C1=O","-","EN300-05550","1964","2-Mercapto-3-methyl-3H-thieno[2,3-d]pyrimidin-4-one","-","A55638","25489863","-","-","317.0 - 319.0","?C","318.0","Celsius"
"CC1=CC=C(CNC(=O)C2=C(N)C=CC=C2)C=C1","-","EN300-05556","1965","2-Amino-N-(4-methyl-benzyl)-benzamide","-","A55638","25489863","-","-","140.0 - 142.0","?C","141.0","Celsius"
"CC(C)C1=C(C=C(C=O)C=C1)[N+]([O-])=O","130766-91-5","EN300-05562","1966","4-Isopropyl-3-nitro-benzaldehyde","-","A55638","25489863","-","-","50.0 - 52.0","?C","51.0","Celsius"
"CC1=NN(CC2=C(Cl)C=CC=C2Cl)C2=C1C=C(S2)C(O)=O","-","EN300-05564","1967","1-(2,6-Dichloro-benzyl)-3-methyl-1H-thieno[2,3-c]pyrazole-5-carboxylic acid","-","A55638","25489863","-","-","282.0 - 284.0","?C","283.0","Celsius"
"CC1=NN(CC2=CC=C(F)C=C2)C2=C1C=C(S2)C(O)=O","-","EN300-05565","1968","1-(4-Fluoro-benzyl)-3-methyl-1H-thieno[2,3-c]pyrazole-5-carboxylic acid","-","A55638","25489863","-","-","227.0 - 229.0","?C","228.0","Celsius"
"[O-][N+](=O)C1=CC(=CC=C1)C1=NN=C(CCl)O1","63002-57-3","EN300-05567","1969","2-Chloromethyl-5-(3-nitro-phenyl)-[1,3,4]oxadiazole","-","A55638","25489863","-","-","115.0 - 117.0","?C","116.0","Celsius"
"SC1=NN=C(N1CC1=CC=CC=C1)C1=CC=NC=C1","74270-78-3","EN300-05570","1970","4-Benzyl-5-pyridin-4-yl-4H-[1,2,4]triazole-3-thiol","-","A55638","25489863","-","-","195.0 - 197.0","?C","196.0","Celsius"
"ClCC(=O)NC(=O)NCC1=CC=CO1","-","EN300-05571","1971","1-(2-Chloro-acetyl)-3-furan-2-ylmethyl-urea","-","A55638","25489863","-","-","128.0 - 130.0","?C","129.0","Celsius"
"CC1=CC(C(=O)CCl)=C(C)N1C1=C(F)C=CC=C1","-","EN300-05581","1972","2-Chloro-1-[1-(2-fluoro-phenyl)-2,5-dimethyl-1H-pyrrol-3-yl]-ethanone","-","A55638","25489863","-","-","86.0 - 90.0","?C","88.0","Celsius"
"OC(=O)CCCNS(=O)(=O)C1=CC(Cl)=C(Cl)C=C1","-","EN300-05584","1973","4-(3,4-Dichloro-benzenesulfonylamino)-butyric acid","-","A55638","25489863","-","-","123.0 - 125.0","?C","124.0","Celsius"
"CCOC1=CC=C(C=C1)S(=O)(=O)NCC(O)=O","-","EN300-05585","1974","(4-Ethoxy-benzenesulfonylamino)-acetic acid","-","A55638","25489863","-","-","139.0 - 141.0","?C","140.0","Celsius"
"CC(Cl)C(=O)NC1=CC2=C(OCO2)C=C1","-","EN300-05590","1975","N-Benzo[1,3]dioxol-5-yl-2-chloro-propionamide","-","A55638","25489863","-","-","168.0 - 170.0","?C","169.0","Celsius"
"CC(Cl)C(=O)NC1=C(Cl)C=C(Cl)C=C1Cl","-","EN300-05591","1976","2-Chloro-N-(2,4,6-trichloro-phenyl)-propionamide","-","A55638","25489863","-","-","153.0 - 155.0","?C","154.0","Celsius"
"CC(Cl)C(=O)NC1=CC(=CC=C1)C#N","-","EN300-05592","1977","2-Chloro-N-(3-cyano-phenyl)-propionamide","-","A55638","25489863","-","-","108.0 - 110.0","?C","109.0","Celsius"
"CC(Cl)C(=O)NC1=C(Cl)C=CC(Cl)=C1","-","EN300-05594","1978","2-Chloro-N-(2,5-dichloro-phenyl)-propionamide","-","A55638","25489863","-","-","123.0 - 125.0","?C","124.0","Celsius"
"CC(Cl)C(=O)N1C(C)CC2=C1C=CC=C2","-","EN300-05601","1979","2-Chloro-1-(2-methyl-2,3-dihydro-indol-1-yl)-propan-1-one","-","A55638","25489863","-","-","135.0 - 137.0","?C","136.0","Celsius"
"CCOC1=C(OC)C=C(C=C1Br)C(O)=O","-","EN300-05614","1980","3-Bromo-4-ethoxy-5-methoxy-benzoic acid","-","A55638","25489863","-","-","140.0 - 142.0","?C","141.0","Celsius"
"CC1=CN2N=C(N)C3=C(C=CC=C3)C2=N1","-","EN300-05616","1981","2-Methyl-imidazo[2,1-a]phthalazin-6-ylamine","-","A55638","25489863","-","-","216.0 - 218.0","?C","217.0","Celsius"
"CC(C)CCNC(=O)NC(=O)CCl","-","EN300-05619","1983","1-(2-Chloro-acetyl)-3-(3-methyl-butyl)-urea","-","A55638","25489863","-","-","93.0 - 95.0","?C","94.0","Celsius"
"NC(=O)NCCCC(O)=O","2609-10-1","EN300-05620","1984","4-Ureido-butyric acid","-","A55638","25489863","-","-","171.0 - 173.0","?C","172.0","Celsius"
"ClCC(=O)NC(=O)C1=CC=CC=C1","7218-27-1","EN300-05621","1985","N-(2-Chloro-acetyl)-benzamide","-","A55638","25489863","-","-","157.0 - 159.0","?C","158.0","Celsius"
"CC(C)C1=C(C)C=C2OC(=O)C=C(CCl)C2=C1","-","EN300-05623","1987","4-Chloromethyl-6-isopropyl-7-methyl-chromen-2-one","-","A55638","25489863","-","-","132.0 - 134.0","?C","133.0","Celsius"
"OC1=CC2=C(C=C1)C(CCl)=CC(=O)O2","25392-41-0","EN300-05624","1988","4-Chloromethyl-7-hydroxy-chromen-2-one","-","A55638","25489863","-","-","135.0 - 137.0","?C","136.0","Celsius"
"NC(=O)N1CCCC1","4736-71-4","EN300-05627","1989","Pyrrolidine-1-carboxylic acid amide","-","A55638","25489863","-","-","222.0 - 224.0","?C","223.0","Celsius"
"FC1=CC=C(C=C1)C1=CSC2=C1C(Cl)=NC=N2","-","EN300-05634","1990","4-Chloro-5-(4-fluoro-phenyl)-thieno[2,3-d]pyrimidine","-","A55638","25489863","-","-","139.0 - 141.0","?C","140.0","Celsius"
"OC(=O)C1=C(Br)C=CC(=C1)S(Cl)(=O)=O","3285-31-2","EN300-05638","1991","2-Bromo-5-chlorosulfonyl-benzoic acid","-","A55638","25489863","-","-","115.0 - 117.0","?C","116.0","Celsius"
"NC(=O)NN=CC1=C(O)C=CC=C1","3030-97-5","EN300-05639","1992","2-Hydroxybenzaldehyde semicarbazone","-","A55638","25489863","-","-","232.0 - 234.0","?C","233.0","Celsius"
"CC1=CC(=O)N2N=C(N)SC2=N1","31737-02-7","EN300-05641","1993","2-Amino-7-methyl-[1,3,4]thiadiazolo[3,2-a]pyrimidin-5-one","-","A55638","25489863","-","-","335.0 - 337.0","?C","336.0","Celsius"
"OC(=O)CNS(=O)(=O)C1=CC=C(Cl)C=C1","13029-72-6","EN300-05642","1994","(4-Chloro-benzenesulfonylamino)-acetic acid","-","A55638","25489863","-","-","177.0 - 179.0","?C","178.0","Celsius"
"COC1=CC=C(C=C1)C(=O)NC(=O)CCl","57764-60-0","EN300-05645","1996","N-(2-Chloro-acetyl)-4-methoxy-benzamide","-","A55638","25489863","-","-","160.0 - 162.0","?C","161.0","Celsius"
"CCC(CC)C1=NN=C(N)S1","-","EN300-05646","1997","5-(1-Ethyl-propyl)-[1,3,4]thiadiazol-2-ylamine","-","A55638","25489863","-","-","158.0 - 160.0","?C","159.0","Celsius"
"CC1=C(OCC2=NN=C(S)N2)C=CC=C1","-","EN300-05651","1998","5-o-Tolyloxymethyl-4H-[1,2,4]triazole-3-thiol","-","A55638","25489863","-","-","110.0 - 112.0","?C","111.0","Celsius"
"CC(C)CN1C(=O)NC(=O)C(Br)=C1N","-","EN300-05655","1999","6-Amino-5-bromo-1-isobutyl-1H-pyrimidine-2,4-dione","-","A55638","25489863","-","-","249.0 - 251.0","?C","250.0","Celsius"
"O=C1CSC(NC2CCCC2)=N1","-","EN300-05658","2000","2-Cyclopentylamino-thiazol-4-one","-","A55638","25489863","-","-","110.0 - 112.0","?C","111.0","Celsius"
"ClCC(=O)NC(=O)NCC=C","5544-34-3","EN300-05661","2001","1-Allyl-3-(2-chloro-acetyl)-urea","-","A55638","25489863","-","-","113.0 - 115.0","?C","114.0","Celsius"
"ClCC(=O)NC(=O)NC1=CC2=C(OCCO2)C=C1","-","EN300-05665","2002","1-(2-Chloro-acetyl)-3-(2,3-dihydro-benzo[1,4]dioxin-6-yl)-urea","-","A55638","25489863","-","-","128.0 - 130.0","?C","129.0","Celsius"
"OC(=O)CNS(=O)(=O)C=CC1=CC=CC=C1","-","EN300-05666","2003","(2-Phenyl-ethenesulfonylamino)-acetic acid","-","A55638","25489863","-","-","80.0 - 82.0","?C","81.0","Celsius"
"CCC1=CC(OCC(O)=O)=CC=C1","1878-51-9","EN300-05667","2004","(3-Ethyl-phenoxy)-acetic acid","-","A55638","25489863","-","-","66.0 - 70.0","?C","68.0","Celsius"
"CCNC(=O)NC(=O)CCl","4791-24-6","EN300-05668","2005","1-(2-Chloro-acetyl)-3-ethyl-urea","-","A55638","25489863","-","-","138.0 - 140.0","?C","139.0","Celsius"
"CCC1=CC2=C(C=C1)C(CCl)=CC(=O)O2","-","EN300-05669","2006","4-Chloromethyl-7-ethyl-chromen-2-one","-","A55638","25489863","-","-","138.0 - 140.0","?C","139.0","Celsius"
"CC1=NN=C(S)N1C1=CC=CC=C1","6232-82-2","EN300-05673","2007","5-Methyl-4-phenyl-4H-[1,2,4]triazole-3-thiol","-","A55638","25489863","-","-","224.0 - 226.0","?C","225.0","Celsius"
"CC1=NN=C(S)N1CC1=CC=CC=C1","91129-84-9","EN300-05676","2009","4-Benzyl-5-methyl-4H-[1,2,4]triazole-3-thiol","-","A55638","25489863","-","-","164.0 - 166.0","?C","165.0","Celsius"
"OC(=O)CNC(=O)C1=CC=C(Br)O1","-","EN300-05680","2011","[(5-Bromo-furan-2-carbonyl)-amino]-acetic acid","-","A55638","25489863","-","-","91.0 - 93.0","?C","92.0","Celsius"
"CCOC(=O)C1=C(N)SC(C(=O)NC)=C1C","-","EN300-05682","2012","2-Amino-4-methyl-5-methylcarbamoyl-thiophene-3-carboxylic acid ethyl ester","-","A55638","25489863","-","-","151.0 - 153.0","?C","152.0","Celsius"
"NC1=C(C=CC=C1)C(=O)NCC1=CC=CC=C1","5471-20-5","EN300-05685","2013","2-Amino-N-benzyl-benzamide","-","A55638","25489863","-","-","125.0 - 127.0","?C","126.0","Celsius"
"OC(=O)CC1=CC2=C(OCCO2)C=C1","17253-11-1","EN300-05691","2014","(2,3-Dihydro-benzo[1,4]dioxin-6-yl)-acetic acid","-","A55638","25489863","-","-","54.0 - 56.0","?C","55.0","Celsius"
"SC1=NC2=C(C=CC(Cl)=C2)C(=O)N1CC=C","91063-29-5","EN300-05700","2016","3-Allyl-7-chloro-2-mercapto-3H-quinazolin-4-one","-","A55638","25489863","-","-","139.0 - 141.0","?C","140.0","Celsius"
"OC(=O)C=CC1=CC=C(OCC2=CC=CC=C2)C=C1","6272-45-3","EN300-05701","2017","3-(4-Benzyloxy-phenyl)-acrylic acid","-","A55638","25489863","-","-","141.0 - 143.0","?C","142.0","Celsius"
"CCOC1=C(OCCOC2=CC=CC=C2)C=CC(C=CC(O)=O)=C1","-","EN300-05702","2018","3-[3-Ethoxy-4-(2-phenoxy-ethoxy)-phenyl]-acrylic acid","-","A55638","25489863","-","-","187.0 - 189.0","?C","188.0","Celsius"
"CCOC1=CC=C(OCCOC2=C(OCC)C=C(C=CC(O)=O)C=C2)C=C1","-","EN300-05705","2019","3-{3-Ethoxy-4-[2-(4-ethoxy-phenoxy)-ethoxy]-phenyl}-acrylic acid","-","A55638","25489863","-","-","182.0 - 184.0","?C","183.0","Celsius"
"BrC1=C2OCOC2=CC(C=O)=C1","19522-96-4","EN300-05707","2020","7-Bromo-benzo[1,3]dioxole-5-carbaldehyde","-","A55638","25489863","-","-","117.0 - 119.0","?C","118.0","Celsius"
"OC(=O)C1=C(C=CC=C1)C(=O)C1=CC2=C(OCCO2)C=C1","-","EN300-05708","2021","2-(2,3-Dihydro-benzo[1,4]dioxine-6-carbonyl)-benzoic acid","-","A55638","25489863","-","-","168.0 - 170.0","?C","169.0","Celsius"
"OC(=O)C1=CC2=C(CCCC2)S1","40133-07-1","EN300-05709","2022","4,5,6,7-Tetrahydro-benzo[b]thiophene-2-carboxylic acid","-","A55638","25489863","-","-","179.0 - 181.0","?C","180.0","Celsius"
"CC1=CC=C(CNC(=O)C2=C(NC(=O)CCl)C=CC=C2)C=C1","-","EN300-05712","2023","2-(2-Chloro-acetylamino)-N-(4-methyl-benzyl)-benzamide","-","A55638","25489863","-","-","150.0 - 152.0","?C","151.0","Celsius"
"COC1=CC=C(CCNC(=O)C2=C(N)C=CC=C2)C=C1","-","EN300-05713","2024","2-Amino-N-[2-(4-methoxy-phenyl)-ethyl]-benzamide","-","A55638","25489863","-","-","80.0 - 82.0","?C","81.0","Celsius"
"CC1(C)CC2=C(SC(N)=C2C#N)C(C)(C)N1","-","EN300-05714","2025","2-Amino-5,5,7,7-tetramethyl-4,5,6,7-tetrahydro-thieno[2,3-c]pyridine-3-carbonitrile","-","A55638","25489863","-","-","197.0 - 199.0","?C","198.0","Celsius"
"ClCC1=CC(=O)OC2=C1C=C1CCCC1=C2","-","EN300-05717","2026","8-Chloromethyl-2,3-dihydro-1H-5-oxa-cyclopenta[b]naphthalen-6-one","-","A55638","25489863","-","-","142.0 - 144.0","?C","143.0","Celsius"
"OC(=O)C=CC1=CC=C(OC(F)(F)C(F)C(F)(F)F)C=C1","-","EN300-05719","2027","3-[4-(1,1,2,3,3,3-Hexafluoro-propoxy)-phenyl]-acrylic acid","-","A55638","25489863","-","-","159.0 - 163.0","?C","161.0","Celsius"
"SC1=NC2=C(SC(=C2)C2=CC=CC=C2)C(=O)N1CC1=CC=CC=C1","-","EN300-05720","2028","3-Benzyl-2-mercapto-6-phenyl-3H-thieno[3,2-d]pyrimidin-4-one","-","A55638","25489863","-","-","313.0 - 315.0","?C","314.0","Celsius"
"CCC(C)(C)C1CCC2=C(C1)SC(NC(=O)CCl)=C2C#N","-","EN300-05723","2029","2-Chloro-N-[3-cyano-6-(1,1-dimethyl-propyl)-4,5,6,7-tetrahydro-benzo[b]thiophen-2-yl]-acetamide","-","A55638","25489863","-","-","100.0 - 102.0","?C","101.0","Celsius"
"CC1=CC(C(=O)CCl)=C(C)N1C1=CC(=CC=C1)S(=O)(=O)N1CCOCC1","-","EN300-05726","2030","2-Chloro-1-{2,5-dimethyl-1-[3-(morpholine-4-sulfonyl)-phenyl]-1H-pyrrol-3-yl}-ethanone","-","A55638","25489863","-","-","171.0 - 173.0","?C","172.0","Celsius"
"C=CCNC1=NC(=CS1)C1=CC=CC=C1","21344-73-0","EN300-05727","2031","Allyl-(4-phenyl-thiazol-2-yl)-amine","-","A55638","25489863","-","-","74.0 - 76.0","?C","75.0","Celsius"
"CCOC(=O)NC1=CC2=C(C=C1)C(CCl)=CC(=O)O2","-","EN300-05737","2032","(4-Chloromethyl-2-oxo-2H-chromen-7-yl)-carbamic acid ethyl ester","-","A55638","25489863","-","-","247.0 - 249.0","?C","248.0","Celsius"
"CN(C)S(=O)(=O)C1=CC=C(C=C1)C(C)=NO","-","EN300-05742","2033","4-(1-Hydroxyimino-ethyl)-N,N-dimethyl-benzenesulfonamide","-","A55638","25489863","-","-","108.0 - 110.0","?C","109.0","Celsius"
"OC1=C(C=CC=C1)C(=O)NCC1=CC=CC=C1","20919-36-2","EN300-05746","2034","N-benzyl-2-hydroxy-benzamide","-","A55638","25489863","-","-","78.0 - 82.0","?C","80.0","Celsius"
"CC(Cl)C(=O)NC1CCCC1","-","EN300-05748","2035","2-Chloro-N-cyclopentyl-propionamide","-","A55638","25489863","-","-","111.0 - 113.0","?C","112.0","Celsius"
"CC(C)CN(C(=O)CCl)C1=C(N)N(CC(C)C)C(=O)NC1=O","-","EN300-05758","2036","N-(6-Amino-1-isobutyl-2,4-dioxo-1,2,3,4-tetrahydro-pyrimidin-5-yl)-2-chloro-N-isobutyl-acetamide","-","A55638","25489863","-","-","153.0 - 155.0","?C","154.0","Celsius"
"COC1=CC(OC)=C(Cl)C=C1C(C)=O","54173-36-3","EN300-05760","2037","1-(5-Chloro-2,4-dimethoxy-phenyl)-ethanone","-","A55638","25489863","-","-","134.0 - 136.0","?C","135.0","Celsius"
"CC(=O)N1CC2=C(CC1C(O)=O)C=CC=C2","143767-54-8","EN300-05767","2038","2-Acetyl-1,2,3,4-tetrahydro-isoquinoline-3-carboxylic acid","-","A55638","25489863","-","-","173.0 - 175.0","?C","174.0","Celsius"
"CC(N1C(=O)C2CC=CCC2C1=O)C(O)=O","-","EN300-05770","2039","2-(1,3-Dioxo-1,3,3a,4,7,7a-hexahydro-isoindol-2-yl)-propionic acid","-","A55638","25489863","-","-","123.0 - 125.0","?C","124.0","Celsius"
"CC1=C(C)C2=C(C=C1)C(CCl)=CC(=O)O2","41295-57-2","EN300-05772","2040","4-Chloromethyl-7,8-dimethyl-chromen-2-one","-","A55638","25489863","-","-","174.0 - 176.0","?C","175.0","Celsius"
"COC1=CC(=CC(OC)=C1OC)C1=NN=C(CCl)O1","50677-29-7","EN300-05773","2041","2-Chloromethyl-5-(3,4,5-trimethoxy-phenyl)-[1,3,4]oxadiazole","-","A55638","25489863","-","-","121.0 - 123.0","?C","122.0","Celsius"
"CC1=NN(CC2=CC=CC=C2)C(C)=C1C=O","2644-94-2","EN300-05774","2042","1-Benzyl-3,5-dimethyl-1H-pyrazole-4-carbaldehyde","-","A55638","25489863","-","-","72.0 - 74.0","?C","73.0","Celsius"
"NC(CC(=O)NC1CCCCC1)=NO","-","EN300-05777","2043","N-Cyclohexyl-2-(N-hydroxycarbamimidoyl)-acetamide","-","A55638","25489863","-","-","167.0 - 169.0","?C","168.0","Celsius"
"CC1=NN=C(S)O1","31130-17-3","EN300-05778","2044","5-Methyl-[1,3,4]oxadiazole-2-thiol","-","A55638","25489863","-","-","239.0 - 241.0","?C","240.0","Celsius"
"SC1=NN=C(O1)C1=CC=CS1","10551-15-2","EN300-05779","2045","5-Thiophen-2-yl-[1,3,4]oxadiazole-2-thiol","-","A55638","25489863","-","-","162.0 - 164.0","?C","163.0","Celsius"
"SC1=NN=C(N1CC1=CC=CC=C1)C1=CN=CC=C1","-","EN300-05781","2046","4-Benzyl-5-pyridin-3-yl-4H-[1,2,4]triazole-3-thiol","-","A55638","25489863","-","-","179.0 - 181.0","?C","180.0","Celsius"
"CC(C)CNC1=C(N)N(CC(C)C)C(=O)NC1=O","-","EN300-05784","2047","6-Amino-1-isobutyl-5-isobutylamino-1H-pyrimidine-2,4-dione","-","A55638","25489863","-","-","197.0 - 199.0","?C","198.0","Celsius"
"OC(=O)CCNS(=O)(=O)C=CC1=CC=CC=C1","-","EN300-05787","2048","3-(2-Phenyl-ethenesulfonylamino)-propionic acid","-","A55638","25489863","-","-","119.0 - 123.0","?C","121.0","Celsius"
"CC(=O)NC(=O)CCl","17368-73-9","EN300-05788","2049","N-Acetyl-2-chloro-acetamide","-","A55638","25489863","-","-","113.0 - 115.0","?C","114.0","Celsius"
"CC(NS(=O)(=O)C1=C(C=CC=C1)C(F)(F)F)C(O)=O","-","EN300-05792","2050","2-(2-Trifluoromethyl-benzenesulfonylamino)-propionic acid","-","A55638","25489863","-","-","105.0 - 107.0","?C","106.0","Celsius"
"CN1N=C(C=CC1=O)C(O)=O","100047-66-3","EN300-05798","2051","1-Methyl-6-oxo-1,6-dihydro-pyridazine-3-carboxylic acid","-","A55638","25489863","-","-","170.0 - 175.0","?C","172.0","Celsius"
"OC(=O)C1=NN(CC2=CC=CC=C2)C(=O)C=C1","-","EN300-05799","2052","1-Benzyl-6-oxo-1,6-dihydro-pyridazine-3-carboxylic acid","-","A55638","25489863","-","-","192.0 - 195.0","?C","194.0","Celsius"
"CC(=O)CC(=O)C1=CC=C(F)C=C1","29681-98-9","EN300-05808","2053","1-(4-Fluoro-phenyl)-butane-1,3-dione","-","A55638","25489863","-","-","48.0 - 52.0","?C","50.0","Celsius"
"CC(NC(N)=S)C1=CC=CC=C1","-","EN300-05812","2054","(1-Phenyl-ethyl)-thiourea","-","A55638","25489863","-","-","94.0 - 96.0","?C","95.0","Celsius"
"COCCNC(N)=S","102353-42-4","EN300-05814","2055","(2-Methoxy-ethyl)-thiourea","-","A55638","25489863","-","-","118.0 - 120.0","?C","119.0","Celsius"
"COC1=C(C=CC=C1)C(=O)NC(=O)CCl","-","EN300-05817","2056","N-(2-Chloro-acetyl)-2-methoxy-benzamide","-","A55638","25489863","-","-","118.0 - 120.0","?C","119.0","Celsius"
"CC1=CC(C)=NC(SCC(=O)NN)=N1","-","EN300-05819","2057","(4,6-Dimethyl-pyrimidin-2-ylsulfanyl)-acetic acid hydrazide","-","A55638","25489863","-","-","119.0 - 121.0","?C","120.0","Celsius"
"CN1C(S)=NN=C1C1=CC=C(Cl)C=C1","29527-27-3","EN300-05821","2058","5-(4-Chloro-phenyl)-4-methyl-4H-[1,2,4]triazole-3-thiol","-","A55638","25489863","-","-","113.0 - 115.0","?C","114.0","Celsius"