"SMILES","CASRN","EXTERNALID","N","NAME","NAME","ARTICLEID","PUBMEDID","PAGE","TABLE","Melting Point {measured}","UNIT {Melting Point}","Melting Point {measured, converted}","UNIT {Melting Point}"
"CCOC1=C(OCCCC(O)=O)C=CC=C1","-","EN300-04236","1507","4-(2-Ethoxy-phenoxy)-butyric acid","-","A55638","25489863","-","-","66.0 - 68.0","?C","67.0","Celsius"
"CC1=CC=C(OCCCC(O)=O)C=C1","22180-02-5","EN300-04237","1508","4-p-Tolyloxy-butyric acid","-","A55638","25489863","-","-","83.0 - 85.0","?C","84.0","Celsius"
"OC(=O)CCCSC1=CC=CC=C1","17742-51-7","EN300-04238","1509","4-phenylsulfanyl-butyric acid","-","A55638","25489863","-","-","66.0 - 68.0","?C","67.0","Celsius"
"OC(=O)C1=CC=C(CN(CC2=CC=CC=C2)S(=O)(=O)C2=CC=C(Cl)C=C2)C=C1","-","EN300-04239","1510","4-{[Benzyl-(4-chloro-benzenesulfonyl)-amino]-methyl}-benzoic acid","-","A55638","25489863","-","-","203.0 - 205.0","?C","204.0","Celsius"
"CC1=NN(C2=C1C=C(S2)C(O)=O)C1=CC(=CC=C1)C(F)(F)F","-","EN300-04242","1511","3-Methyl-1-(3-trifluoromethyl-phenyl)-1H-thieno[2,3-c]pyrazole-5-carboxylic acid","-","A55638","25489863","-","-","271.0 - 273.0","?C","272.0","Celsius"
"FC1=C(C=CC=C1)C1=NN=C(S)N1CC1=CC=CC=C1","-","EN300-04244","1512","4-Benzyl-5-(2-fluoro-phenyl)-4H-[1,2,4]triazole-3-thiol","-","A55638","25489863","-","-","90.0 - 92.0","?C","91.0","Celsius"
"CCCN1C(N)=NC2=C1C=CC=C2","57667-50-2","EN300-04245","1513","1-Propyl-1H-benzoimidazol-2-ylamine","-","A55638","25489863","-","-","114.0 - 116.0","?C","115.0","Celsius"
"ClCC(=O)NC1=CC(=CC=C1)S(=O)(=O)N=C1CCCCCN1","-","EN300-04247","1514","N-[3-(Azepan-2-ylidenesulfamoyl)-phenyl]-2-chloro-acetamide","-","A55638","25489863","-","-","133.0 - 135.0","?C","134.0","Celsius"
"COC1=C(C=C(C=C1)C(O)=O)S(=O)(=O)NCC1=CC=C(Cl)C=C1","-","EN300-04253","1516","3-(4-Chloro-benzylsulfamoyl)-4-methoxy-benzoic acid","-","A55638","25489863","-","-","230.0 - 232.0","?C","231.0","Celsius"
"OC(=O)C1=CC(=C(Cl)C=C1)S(=O)(=O)N(CC1=CC=CC=C1)C1=CC(=CC=C1)C(F)(F)F","-","EN300-04254","1517","3-[Benzyl-(3-trifluoromethyl-phenyl)-sulfamoyl]-4-chloro-benzoic acid","-","A55638","25489863","-","-","201.0 - 203.0","?C","202.0","Celsius"
"CC1=CC(OCCCC(O)=O)=CC=C1","22180-01-4","EN300-04258","1518","4-m-Tolyloxy-butyric acid","-","A55638","25489863","-","-","55.0 - 57.0","?C","56.0","Celsius"
"NC(=O)C1=C(NC(=O)CCl)SC2=C1CCCC2","20886-87-7","EN300-04259","1519","2-(2-Chloro-acetylamino)-4,5,6,7-tetrahydro-benzo[b]thiophene-3-carboxylic acid amide","-","A55638","25489863","-","-","236.0 - 238.0","?C","237.0","Celsius"
"ClCC(=O)NC1=C(C=CS1)C#N","55654-19-8","EN300-04262","1520","2-Chloro-N-(3-cyano-thiophen-2-yl)-acetamide","-","A55638","25489863","-","-","160.0 - 170.0","?C","165.0","Celsius"
"NNC(=O)C1=C2C=CC=CC2=NC(=C1)C1=CC=CO1","-","EN300-04263","1521","2-Furan-2-yl-quinoline-4-carboxylic acid hydrazide","-","A55638","25489863","-","-","219.0 - 221.0","?C","220.0","Celsius"
"OCC(NS(=O)(=O)C1=CC=C(Br)C=C1)C(O)=O","-","EN300-04264","1522","2-(4-Bromo-benzenesulfonylamino)-3-hydroxy-propionic acid","-","A55638","25489863","-","-","239.0 - 241.0","?C","240.0","Celsius"
"OC(=O)CC1=CC=C(S1)S(=O)(=O)N1CCCC1","-","EN300-04267","1523","[5-(Pyrrolidine-1-sulfonyl)-thiophen-2-yl]-acetic acid","-","A55638","25489863","-","-","262.0 - 264.0","?C","263.0","Celsius"
"ClCC1=CC(=O)N2C=C(Br)C=CC2=N1","-","EN300-04269","1524","7-Bromo-2-chloromethyl-pyrido[1,2-a]pyrimidin-4-one","-","A55638","25489863","-","-","172.0 - 174.0","?C","173.0","Celsius"
"COC1=CC(OC)=C(NC(=O)CC(C)=O)C=C1","16715-79-0","EN300-04272","1525","N-(2,4-Dimethoxy-phenyl)-3-oxo-butyramide","-","A55638","25489863","-","-","96.0 - 98.0","?C","97.0","Celsius"
"CC(=O)CC(=O)NC1=CC(F)=C(F)C=C1","-","EN300-04273","1526","N-(3,4-Difluoro-phenyl)-3-oxo-butyramide","-","A55638","25489863","-","-","92.0 - 94.0","?C","93.0","Celsius"
"ClC(C(=O)C1=CNC2=C1C=CC=C2)C1=CC=CC=C1","42883-45-4","EN300-04277","1527","2-Chloro-1-(1H-indol-3-yl)-2-phenyl-ethanone","-","A55638","25489863","-","-","124.0 - 126.0","?C","125.0","Celsius"
"CC(C)CC(NC(=O)C1=C(C)C=CC=C1)C(O)=O","-","EN300-04278","1528","4-Methyl-2-(2-methyl-benzoylamino)-pentanoic acid","-","A55638","25489863","-","-","111.0 - 113.0","?C","112.0","Celsius"
"ClC1=C(Cl)C(=CC=C1)C1=CC=C(O1)C=O","106827-26-3","EN300-04282","1529","5-(2,3-Dichloro-phenyl)-furan-2-carbaldehyde","-","A55638","25489863","-","-","94.0 - 98.0","?C","96.0","Celsius"
"CC1=CC=C(C=C1)S(=O)(=O)NCCC(O)=O","42908-33-8","EN300-04285","1531","3-(Toluene-4-sulfonylamino)-propionic acid","-","A55638","25489863","-","-","148.0 - 150.0","?C","149.0","Celsius"
"CC(NC(=O)C1=C(Cl)C=CC=C1)C(O)=O","-","EN300-04292","1532","2-(2-Chloro-benzoylamino)-propionic acid","-","A55638","25489863","-","-","137.0 - 139.0","?C","138.0","Celsius"
"CC(NC(=O)C1=CC=CO1)C(O)=O","-","EN300-04294","1533","2-[(Furan-2-carbonyl)-amino]-propionic acid","-","A55638","25489863","-","-","100.0 - 102.0","?C","101.0","Celsius"
"[O-][N+](=O)C1=CC2=C(OCOC2)C(CCl)=C1","99849-17-9","EN300-04300","1534","8-Chloromethyl-6-nitro-4H-benzo[1,3]dioxine","-","A55638","25489863","-","-","94.0 - 96.0","?C","95.0","Celsius"
"COC(=O)C1=NNC(N)=N1","3641-14-3","EN300-04304","1535","5-Amino-1H-[1,2,4]triazole-3-carboxylic acid methyl ester","-","A55638","25489863","-","-","218.0 - 222.0","?C","220.0","Celsius"
"CCOC(=O)C1=CC2=C(C=C1)N=C(CCC(O)=O)C(=O)N2CC","-","EN300-04305","1536","2-(2-Carboxy-ethyl)-4-ethyl-3-oxo-3,4-dihydro-quinoxaline-6-carboxylic acid ethyl ester","-","A55638","25489863","-","-","181.0 - 185.0","?C","183.0","Celsius"
"OC(=O)C1=NN(C(=O)CC1)C1=CC=CC=C1","33548-33-3","EN300-04307","1537","6-Oxo-1-phenyl-1,4,5,6-tetrahydro-pyridazine-3-carboxylic acid","-","A55638","25489863","-","-","169.0 - 171.0","?C","170.0","Celsius"
"CC(C)C1=CC=C(C=C1)N=C1NCC(C)S1","-","EN300-04312","1538","(4-Isopropyl-phenyl)-(5-methyl-thiazolidin-2-ylidene)-amine","-","A55638","25489863","-","-","109.0 - 111.0","?C","110.0","Celsius"
"CC(O)C(NS(=O)(=O)C1=CC=C(Cl)C=C1)C(O)=O","-","EN300-04315","1539","2-(4-Chloro-benzenesulfonylamino)-3-hydroxy-butyric acid","-","A55638","25489863","-","-","179.0 - 181.0","?C","180.0","Celsius"
"CCCCCCN1N=C(C(O)=O)C2=C(C=CC=C2)C1=O","-","EN300-04318","1540","3-Hexyl-4-oxo-3,4-dihydro-phthalazine-1-carboxylic acid","-","A55638","25489863","-","-","124.0 - 126.0","?C","125.0","Celsius"
"CC(C)NC(=O)NC(=O)CCl","7248-86-4","EN300-04324","1541","1-(2-Chloro-acetyl)-3-isopropyl-urea","-","A55638","25489863","-","-","86.0 - 88.0","?C","87.0","Celsius"
"COC1=CC=C(CN2C(=O)CC3=C(C=CC=C3)C2=O)C=C1","-","EN300-04325","1542","2-(4-Methoxy-benzyl)-4H-isoquinoline-1,3-dione","-","A55638","25489863","-","-","96.0 - 98.0","?C","97.0","Celsius"
"CCC(C)C(NC(N)=O)C(O)=O","26117-19-1","EN300-04327","1543","3-Methyl-2-ureido-pentanoic acid","-","A55638","25489863","-","-","205.0 - 207.0","?C","206.0","Celsius"
"NC1=NC(=C(O1)C1=CC=CC=C1)C1=CC=CC=C1","33119-63-0","EN300-04333","1544","4,5-Diphenyl-oxazol-2-ylamine","-","A55638","25489863","-","-","150.0 - 152.0","?C","151.0","Celsius"
"[O-][N+](=O)C1=C(SC2=NC=CC=N2)C=CC(C=O)=C1","-","EN300-04336","1545","3-Nitro-4-(pyrimidin-2-ylsulfanyl)-benzaldehyde","-","A55638","25489863","-","-","100.0 - 102.0","?C","101.0","Celsius"
"CCOC(=O)C1=C(C)NC(C(C)=O)=C1C","6314-22-3","EN300-04338","1546","5-Acetyl-2,4-dimethyl-1H-pyrrole-3-carboxylic acid ethyl ester","-","A55638","25489863","-","-","115.0 - 117.0","?C","116.0","Celsius"
"CC(=O)C1=CC=C(C=C1)S(=O)(=O)N1CCOCC1","58722-35-3","EN300-04340","1547","1-[4-(Morpholine-4-sulfonyl)-phenyl]-ethanone","-","A55638","25489863","-","-","161.0 - 163.0","?C","162.0","Celsius"
"NC1=C(C2=NC3=C(N2)C=CC=C3)C2=C(CCCC2)S1","143361-89-1","EN300-04342","1548","3-(1H-Benzoimidazol-2-yl)-4,5,6,7-tetrahydro-benzo[b]thiophen-2-ylamine","-","A55638","25489863","-","-","175.0 - 177.0","?C","176.0","Celsius"
"CC(C)OC1=CC=C(C=C1)C(=O)NN","90873-17-9","EN300-04344","1549","4-Isopropoxy-benzoic acid hydrazide","-","A55638","25489863","-","-","117.0 - 119.0","?C","118.0","Celsius"
"CCCOC1=CC=C(C=C1)C(=O)NN","64328-60-5","EN300-04345","1550","4-Propoxy-benzoic acid hydrazide","-","A55638","25489863","-","-","88.0 - 90.0","?C","89.0","Celsius"
"CC(C)CCOC1=CC=C(C=C1)C(=O)NN","-","EN300-04347","1551","4-(3-Methyl-butoxy)-benzoic acid hydrazide","-","A55638","25489863","-","-","108.0 - 110.0","?C","109.0","Celsius"
"OC(=O)C1=CC(NS(=O)(=O)C2=C(Cl)C=CC(Cl)=C2)=CC=C1","88522-30-9","EN300-04348","1552","3-(2,5-Dichloro-benzenesulfonylamino)-benzoic acid","-","A55638","25489863","-","-","217.0 - 219.0","?C","218.0","Celsius"
"COC1=C(OCC(C)C)C=CC(=C1)C(O)=O","3535-35-1","EN300-04350","1553","4-Isobutoxy-3-methoxy-benzoic acid","-","A55638","25489863","-","-","145.0 - 147.0","?C","146.0","Celsius"
"OC(=O)CCC1=NC2=C(NC1=O)C=CC=C2","7712-28-9","EN300-04352","1554","3-(3-Oxo-3,4-dihydro-quinoxalin-2-yl)-propionic acid","-","A55638","25489863","-","-","263.0 - 265.0","?C","264.0","Celsius"
"CCC1(NC(=O)NC1=O)C1=CC=CC=C1","2216-93-5","EN300-04353","1555","5-Ethyl-5-phenyl-imidazolidine-2,4-dione","-","A55638","25489863","-","-","203.0 - 205.0","?C","204.0","Celsius"
"CCC1(CC)NC(=O)NC1=O","5455-34-5","EN300-04354","1556","5,5-Diethyl-imidazolidine-2,4-dione","-","A55638","25489863","-","-","180.0 - 182.0","?C","181.0","Celsius"
"CC(C)C(NC(N)=O)C(O)=O","26081-00-5","EN300-04356","1557","3-METHYL-2-UREIDO-BUTYRIC ACID","-","A55638","25489863","-","-","203.0 - 207.0","?C","205.0","Celsius"
"CC(C)CC1NC(=O)NC1=O","58942-03-3","EN300-04357","1558","5-Isobutyl-imidazolidine-2,4-dione","-","A55638","25489863","-","-","215.0 - 217.0","?C","216.0","Celsius"
"OC(=O)CCCSC1=NC2=C(N1)C=CC=C2","69002-94-4","EN300-04358","1559","4-(1H-Benzoimidazol-2-ylsulfanyl)-butyric acid","-","A55638","25489863","-","-","120.0 - 122.0","?C","121.0","Celsius"
"ClCC(=O)N1CC(=O)NC2=C1C=CC=C2","436088-67-4","EN300-04361","1560","4-(2-Chloro-acetyl)-3,4-dihydro-1H-quinoxalin-2-one","-","A55638","25489863","-","-","114.0 - 119.0","?C","116.0","Celsius"
"CCC(C)C(NC(=O)C1=CC=CC=C1)C(O)=O","2901-99-7","EN300-04362","1561","2-Benzoylamino-3-methyl-pentanoic acid","-","A55638","25489863","-","-","117.0 - 119.0","?C","118.0","Celsius"
"OC(=O)CSC1=NC2=C(C=CC(Cl)=C2)N1CC1=CC=CC=C1","-","EN300-04363","1562","(1-Benzyl-5-chloro-1H-benzoimidazol-2-ylsulfanyl)-acetic acid","-","A55638","25489863","-","-","155.0 - 157.0","?C","156.0","Celsius"
"NC1=C(NCC2=CC=CC=C2)C=CC(=C1)C(F)(F)F","66315-44-4","EN300-04365","1563","N*1*-Benzyl-4-trifluoromethyl-benzene-1,2-diamine","-","A55638","25489863","-","-","70.0 - 75.0","?C","72.5","Celsius"
"CC1(NC(=O)NC1=O)C1=CC2=C(C=CC=C2)C=C1","-","EN300-04375","1565","5-Methyl-5-naphthalen-2-yl-imidazolidine-2,4-dione","-","A55638","25489863","-","-","190.0 - 192.0","?C","191.0","Celsius"
"CC1=CC=C(CNC(=O)CCl)C=C1","70110-30-4","EN300-04378","1566","2-Chloro-N-(4-methyl-benzyl)-acetamide","-","A55638","25489863","-","-","117.0 - 119.0","?C","118.0","Celsius"
"COC1=C(NC(=O)CCl)C=C(C=C1)S(=O)(=O)N1CCCCC1","-","EN300-04382","1567","2-Chloro-N-[2-methoxy-5-(piperidine-1-sulfonyl)-phenyl]-acetamide","-","A55638","25489863","-","-","115.0 - 130.0","?C","122.0","Celsius"
"ClC1=CC=C(C=C1)C(=O)NC1=CC(C=O)=CC=C1","-","EN300-04383","1568","4-Chloro-N-(3-formyl-phenyl)-benzamide","-","A55638","25489863","-","-","129.0 - 131.0","?C","130.0","Celsius"
"CN1C=CN=C1SC1=C(C=C(C=O)C=C1)[N+]([O-])=O","-","EN300-04384","1569","4-(1-Methyl-1H-imidazol-2-ylsulfanyl)-3-nitro-benzaldehyde","-","A55638","25489863","-","-","173.0 - 175.0","?C","174.0","Celsius"
"CSCCC1NC(=O)NC1=O","13253-44-6","EN300-04385","1570","5-(2-Methylsulfanyl-ethyl)-imidazolidine-2,4-dione","-","A55638","25489863","-","-","108.0 - 110.0","?C","109.0","Celsius"
"CCOC(=O)C1=C(NC(=O)CCl)SC(C)=C1CC","-","EN300-04387","1571","2-(2-Chloro-acetylamino)-4-ethyl-5-methyl-thiophene-3-carboxylic acid ethyl ester","-","A55638","25489863","-","-","97.0 - 99.0","?C","98.0","Celsius"
"NN=C1C(=O)N(CC=C)C2=C1C=CC=C2","832-83-7","EN300-04393","1572","1-Allyl-3-hydrazono-1,3-dihydro-indol-2-one","-","A55638","25489863","-","-","129.0 - 132.0","?C","130.0","Celsius"
"ClCC(=O)C1=CNC2=C1C=CC=C2","28755-03-5","EN300-04394","1573","2-Chloro-1-(1H-indol-3-yl)-ethanone","-","A55638","25489863","-","-","183.0 - 185.0","?C","184.0","Celsius"
"CN(CC(=O)NC1=CC=C(C)C=C1)C(=O)CCl","-","EN300-04395","1574","2-Chloro-N-methyl-N-(p-tolylcarbamoyl-methyl)-acetamide","-","A55638","25489863","-","-","145.0 - 147.0","?C","146.0","Celsius"
"CC1(NC(=O)NC1=O)C1=CC=C(C=C1)[N+]([O-])=O","64464-22-8","EN300-04397","1575","5-Methyl-5-(4-nitro-phenyl)-imidazolidine-2,4-dione","-","A55638","25489863","-","-","235.0 - 237.0","?C","236.0","Celsius"
"CCC1CCC2(CC1)NC(=O)NC2=O","-","EN300-04398","1576","8-Ethyl-1,3-diaza-spiro[4.5]decane-2,4-dione","-","A55638","25489863","-","-","230.0 - 232.0","?C","231.0","Celsius"
"O=C1NC(=O)C2(CCC3=C2C=CC=C3)N1","6252-98-8","EN300-04401","1577","2',3'-dihydro-2H,5H-spiro[imidazolidine-4,1'-indene]-2,5-dione","-","A55638","25489863","-","-","229.0 - 231.0","?C","230.0","Celsius"
"CCCC1(CCC)NC(=O)NC1=O","36033-33-7","EN300-04403","1578","5,5-Dipropyl-imidazolidine-2,4-dione","-","A55638","25489863","-","-","205.0 - 207.0","?C","206.0","Celsius"
"O=S(=O)(CC1=NC2=C(N1)C=CC=C2)C1=CC=CC=C1","21094-70-2","EN300-04405","1579","2-Benzenesulfonylmethyl-1H-benzoimidazole","-","A55638","25489863","-","-","215.0 - 217.0","?C","216.0","Celsius"
"CN(C)C1=C(C=C(C=O)C=C1)[N+]([O-])=O","59935-39-6","EN300-04406","1580","4-Dimethylamino-3-nitro-benzaldehyde","-","A55638","25489863","-","-","104.0 - 106.0","?C","105.0","Celsius"
"COC1=C(C=C(NC(=O)CCl)C=C1)S(=O)(=O)N1CCCCC1","-","EN300-04407","1581","2-Chloro-N-[4-methoxy-3-(piperidine-1-sulfonyl)-phenyl]-acetamide","-","A55638","25489863","-","-","142.0 - 144.0","?C","143.0","Celsius"
"CCN(CC)CCN1C(N)=NC2=C1C=CC=C2","38652-79-8","EN300-04412","1582","1-(2-Diethylamino-ethyl)-1H-benzoimidazol-2-ylamine","-","A55638","25489863","-","-","129.0 - 131.0","?C","130.0","Celsius"
"OC(=O)C1CN(CC2=CC=CC=C2)C(=O)C1","2168-14-1","EN300-04425","1583","1-Benzyl-5-oxo-pyrrolidine-3-carboxylic acid","-","A55638","25489863","-","-","140.0 - 144.0","?C","142.0","Celsius"
"SC1=NN=C(N1CC1=CC2=C(OCO2)C=C1)C1=CC=CC=C1","-","EN300-04426","1584","4-Benzo[1,3]dioxol-5-ylmethyl-5-phenyl-4H-[1,2,4]triazole-3-thiol","-","A55638","25489863","-","-","118.0 - 120.0","?C","119.0","Celsius"
"CCCC1(NC(=O)NC1=O)C1=CC=CC=C1","-","EN300-04429","1585","5-Phenyl-5-propyl-imidazolidine-2,4-dione","-","A55638","25489863","-","-","172.0 - 174.0","?C","173.0","Celsius"
"CCOC1=CC=C(NC(=O)C2=CC=C(NC(=O)CCl)C=C2)C=C1","-","EN300-04431","1586","4-(2-Chloro-acetylamino)-N-(4-ethoxy-phenyl)-benzamide","-","A55638","25489863","-","-","253.0 - 255.0","?C","254.0","Celsius"
"NC(=O)NC(CC1=CNC2=C1C=CC=C2)C(O)=O","-","EN300-04432","1587","3-(1H-Indol-3-yl)-2-ureido-propionic acid","-","A55638","25489863","-","-","198.0 - 202.0","?C","200.0","Celsius"
"CSCCC(NC(N)=O)C(O)=O","30411-84-8","EN300-04433","1588","4-Methylsulfanyl-2-ureido-butyric acid","-","A55638","25489863","-","-","141.0 - 143.0","?C","142.0","Celsius"
"OC(=O)CCCOC1=CC(Br)=CC=C1","-","EN300-04434","1589","4-(3-Bromo-phenoxy)-butyric acid","-","A55638","25489863","-","-","50.0 - 52.0","?C","51.0","Celsius"
"CC1=NN(C(NC(=O)CCl)=C1)C1=NC(C)=CC(C)=N1","-","EN300-04435","1590","2-Chloro-N-[2-(4,6-dimethyl-pyrimidin-2-yl)-5-methyl-2H-pyrazol-3-yl]-acetamide","-","A55638","25489863","-","-","185.0 - 187.0","?C","186.0","Celsius"
"OC(=O)C=CC1=CN(N=C1C1=CC2=C(O1)C=CC=C2)C1=CC=CC=C1","-","EN300-04441","1591","3-(3-Benzofuran-2-yl-1-phenyl-1H-pyrazol-4-yl)-acrylic acid","-","A55638","25489863","-","-","225.0 - 227.0","?C","226.0","Celsius"
"COC(=O)C1=C(N)SC(C)=C1C","4651-93-8","EN300-04443","1592","2-Amino-4,5-dimethyl-thiophene-3-carboxylic acid methyl ester","-","A55638","25489863","-","-","124.0 - 126.0","?C","125.0","Celsius"
"COC(=O)C1=C(NC(=O)CCl)SC(C)=C1C","-","EN300-04444","1593","2-(2-Chloro-acetylamino)-4,5-dimethyl-thiophene-3-carboxylic acid methyl ester","-","A55638","25489863","-","-","143.0 - 145.0","?C","144.0","Celsius"
"CC1=C(C)C2=C(S1)N=CN=C2SCC(O)=O","296262-16-3","EN300-04447","1594","(5,6-Dimethyl-thieno[2,3-d]pyrimidin-4-ylsulfanyl)-acetic acid","-","A55638","25489863","-","-","215.0 - 217.0","?C","216.0","Celsius"
"CN1C2=C(C=CC=C2)C(C(=O)CCl)=C1C1=CC=CC=C1","-","EN300-04454","1595","2-Chloro-1-(1-methyl-2-phenyl-1H-indol-3-yl)-ethanone","-","A55638","25489863","-","-","146.0 - 148.0","?C","147.0","Celsius"
"CCCC1=CC=C(C=C1)C1=CSC(N)=N1","350997-71-6","EN300-04457","1596","4-(4-Propyl-phenyl)-thiazol-2-ylamine","-","A55638","25489863","-","-","115.0 - 117.0","?C","116.0","Celsius"
"CC(Br)C(=O)C1=CC=C(Cl)C=C1","877-37-2","EN300-04458","1597","2-Bromo-1-(4-chloro-phenyl)-propan-1-one","-","A55638","25489863","-","-","68.0 - 70.0","?C","69.0","Celsius"
"OC(=O)C1CC2=C(CN1C(=O)C1=CC=CC=C1)C=CC=C2","115732-15-5","EN300-04460","1598","2-Benzoyl-1,2,3,4-tetrahydro-isoquinoline-3-carboxylic acid","-","A55638","25489863","-","-","141.0 - 143.0","?C","142.0","Celsius"
"NC(=O)CC1=NC2=C(N1)C=CC=C2","60792-56-5","EN300-04465","1599","2-(1H-Benzoimidazol-2-yl)-acetamide","-","A55638","25489863","-","-","229.0 - 231.0","?C","230.0","Celsius"
"CCC1(NC(=O)NC1=O)C1=CC=C(F)C=C1","-","EN300-04468","1600","5-Ethyl-5-(4-fluoro-phenyl)-imidazolidine-2,4-dione","-","A55638","25489863","-","-","95.0 - 97.0","?C","96.0","Celsius"
"CCCCN1C2=C(C(CC(O)=O)C(=O)N2)C(=O)N(C)C1=O","-","EN300-04472","1602","(1-Butyl-3-methyl-2,4,6-trioxo-2,3,4,5,6,7-hexahydro-1H-pyrrolo[2,3-d]pyrimidin-5-yl)-acetic acid","-","A55638","25489863","-","-","229.0 - 231.0","?C","230.0","Celsius"
"OC(=O)CS(=O)(=O)C1=CC=C(Cl)C=C1","3405-89-8","EN300-04476","1604","(4-Chloro-benzenesulfonyl)-acetic acid","-","A55638","25489863","-","-","122.0 - 124.0","?C","123.0","Celsius"
"CC1=CC(C(=O)CCC(O)=O)=C(C)C=C1","5394-59-2","EN300-04481","1605","4-(2,5-Dimethyl-phenyl)-4-oxo-butyric acid","-","A55638","25489863","-","-","80.0 - 84.0","?C","82.0","Celsius"
"OC(=O)C1=NN(C2=NC3=C(N2)C=CC=C3)C(=O)CC1","-","EN300-04483","1606","1-(1H-Benzoimidazol-2-yl)-6-oxo-1,4,5,6-tetrahydro-pyridazine-3-carboxylic acid","-","A55638","25489863","-","-","328.0 - 330.0","?C","329.0","Celsius"
"CC1=CC=C(C=C1)C(=O)C(Br)CC(O)=O","53515-23-4","EN300-04485","1607","3-Bromo-4-oxo-4-p-tolyl-butyric acid","-","A55638","25489863","-","-","116.0 - 118.0","?C","117.0","Celsius"
"OC(=O)CCCOC1=CC=C(Br)C=C1","55580-07-9","EN300-04487","1608","4-(4-Bromo-phenoxy)-butyric acid","-","A55638","25489863","-","-","130.0 - 132.0","?C","131.0","Celsius"
"CN(C)S(=O)(=O)C1=CC=C(N)C=C1","1709-59-7","EN300-04494","1609","4-Amino-N,N-dimethyl-benzenesulfonamide","-","A55638","25489863","-","-","119.0 - 162.0","?C","140.0","Celsius"
"COC1=C(C=C(CC(O)=O)C=C1)S(=O)(=O)N1CCOCC1","-","EN300-04495","1610","[4-Methoxy-3-(morpholine-4-sulfonyl)-phenyl]-acetic acid","-","A55638","25489863","-","-","116.0 - 118.0","?C","117.0","Celsius"
"CC1CC2(CC(C)(C)C1)NC(=O)NC2=O","91216-38-5","EN300-04498","1612","7,7,9-Trimethyl-1,3-diaza-spiro[4.5]decane-2,4-dione","-","A55638","25489863","-","-","273.0 - 275.0","?C","274.0","Celsius"
"CCCCN1C(=O)NC(=O)C(NC)=C1N","-","EN300-04506","1613","6-Amino-1-butyl-5-methylamino-1H-pyrimidine-2,4-dione","-","A55638","25489863","-","-","201.0 - 203.0","?C","202.0","Celsius"
"OC(=O)CCC1=NC2=C(C3=C(CCCC3)S2)C(=O)N1","109164-47-8","EN300-04511","1615","3-(4-Oxo-3,4,5,6,7,8-hexahydro-benzo[4,5]thieno[2,3-d]pyrimidin-2-yl)-propionic acid","-","A55638","25489863","-","-","140.0 - 142.0","?C","141.0","Celsius"
"CN1C(C)=C(C=O)C=C1C#N","565191-91-5","EN300-04514","1616","4-Formyl-1,5-dimethyl-1H-pyrrole-2-carbonitrile","-","A55638","25489863","-","-","85.0 - 97.0","?C","91.0","Celsius"
"CC1=CC(C=O)=C(C)N1C1=CC(=C(Cl)C=C1)C(F)(F)F","-","EN300-04516","1617","1-(4-Chloro-3-trifluoromethyl-phenyl)-2,5-dimethyl-1H-pyrrole-3-carbaldehyde","-","A55638","25489863","-","-","88.0 - 90.0","?C","89.0","Celsius"