"SMILES","CASRN","EXTERNALID","N","NAME","NAME","ARTICLEID","PUBMEDID","PAGE","TABLE","Melting Point {measured}","UNIT {Melting Point}","Melting Point {measured, converted}","UNIT {Melting Point}"
"NC(=O)C(O)C1CCOC1","-","EN300-104291","4526","2-hydroxy-2-(oxolan-3-yl)acetamide","-","A55638","25489863","-","-","84.0 - 86.0","?C","85.0","Celsius"
"CC(C)(C)OC(=O)NC1=C(N=NS1)C(O)=O","-","EN300-104292","4527","5-{[(tert-butoxy)carbonyl]amino}-1,2,3-thiadiazole-4-carboxylic acid","-","A55638","25489863","-","-","139.0 - 141.0","?C","140.0","Celsius"
"CC1=C(C(O)=O)C(=O)OC2=C1C=C(Br)C=C2","-","EN300-104299","4528","6-bromo-4-methyl-2-oxo-2H-chromene-3-carboxylic acid","-","A55638","25489863","-","-","179.0 - 181.0","?C","180.0","Celsius"
"COC1=COC(CCl)=CC1=O","-","EN300-104301","4530","2-(chloromethyl)-5-methoxy-4H-pyran-4-one","-","A55638","25489863","-","-","116.0 - 118.0","?C","117.0","Celsius"
"CC1(C)CNC2=C(S1)C=CC=C2","-","EN300-104303","4531","2,2-dimethyl-3,4-dihydro-2H-1,4-benzothiazine","-","A55638","25489863","-","-","41.0 - 43.0","?C","42.0","Celsius"
"OCCC1CSCCN1","-","EN300-104304","4532","2-(thiomorpholin-3-yl)ethan-1-ol","-","A55638","25489863","-","-","86.0 - 88.0","?C","87.0","Celsius"
"COC1=C(N)C(Cl)=NC=N1","-","EN300-104306","4533","4-chloro-6-methoxypyrimidin-5-amine","-","A55638","25489863","-","-","70.0 - 72.0","?C","71.0","Celsius"
"OC(=O)C=C1CCC1","-","EN300-104307","4534","2-cyclobutylideneacetic acid","-","A55638","25489863","-","-","89.0 - 91.0","?C","90.0","Celsius"
"BrC1=CC=C(CN2CCCS2(=O)=O)C=C1","-","EN300-104311","4535","2-[(4-bromophenyl)methyl]-1$l^{6},2-thiazolidine-1,1-dione","-","A55638","25489863","-","-","58.0 - 60.0","?C","59.0","Celsius"
"CC(=O)N(C1=NC(CCl)=CS1)C1=C(F)C=CC=C1","-","EN300-10434","4537","N-[4-(chloromethyl)-1,3-thiazol-2-yl]-N-(2-fluorophenyl)acetamide","-","A55638","25489863","-","-","150.0 - 155.0","?C","152.0","Celsius"
"CC(C1CCOCC1)C(O)=O","-","EN300-104342","4538","2-(oxan-4-yl)propanoic acid","-","A55638","25489863","-","-","39.0 - 41.0","?C","40.0","Celsius"
"CC1CCC2=C(C1)SC1=C2C(=O)N(CC2=CC=CO2)C(S)=N1","-","EN300-10435","4539","3-(2-furylmethyl)-2-mercapto-7-methyl-5,6,7,8-tetrahydro[1]benzothieno[2,3-d]pyrimidin-4(3H)-one","-","A55638","25489863","-","-","275.0 - 277.0","?C","276.0","Celsius"
"NC1=NN=C2CCCCN12","-","EN300-104357","4540","5H,6H,7H,8H-[1,2,4]triazolo[4,3-a]pyridin-3-amine","-","A55638","25489863","-","-","270.0 - 272.0","?C","271.0","Celsius"
"OC1CCN(CC1)C1=CC=C(O1)C=O","-","EN300-104359","4541","5-(4-hydroxypiperidin-1-yl)furan-2-carbaldehyde","-","A55638","25489863","-","-","103.0 - 105.0","?C","104.0","Celsius"
"NC1=CN(N=C1)C1=C(F)C=CC=C1","-","EN300-104362","4543","1-(2-fluorophenyl)-1H-pyrazol-4-amine","-","A55638","25489863","-","-","59.0 - 61.0","?C","60.0","Celsius"
"CC(O)C1=CN(N=N1)C1=CC=CC=C1","-","EN300-104367","4544","1-(1-phenyl-1H-1,2,3-triazol-4-yl)ethan-1-ol","-","A55638","25489863","-","-","75.0 - 77.0","?C","76.0","Celsius"
"CC1=C(F)C(=CC(=C1)[N+]([O-])=O)S(Cl)(=O)=O","-","EN300-104368","4545","2-fluoro-3-methyl-5-nitrobenzene-1-sulfonyl chloride","-","A55638","25489863","-","-","73.0 - 75.0","?C","74.0","Celsius"
"OC1=NC(S)=NN=C1","-","EN300-104375","4547","3-sulfanyl-1,2,4-triazin-5-ol","-","A55638","25489863","-","-","244.0 - 246.0","?C","245.0","Celsius"
"NC1=NC=C(N1)C1=CC=C(Br)C=C1","-","EN300-104378","4548","5-(4-bromophenyl)-1H-imidazol-2-amine","-","A55638","25489863","-","-","194.0 - 196.0","?C","195.0","Celsius"
"COC1=C2C(=O)CCC2=CC=C1","-","EN300-104379","4549","7-methoxy-2,3-dihydro-1H-inden-1-one","-","A55638","25489863","-","-","99.0 - 102.0","?C","100.0","Celsius"
"OC(CNCC1=CC=CC=C1)C1=CC=CS1","-","EN300-104383","4550","2-(benzylamino)-1-(thiophen-2-yl)ethan-1-ol","-","A55638","25489863","-","-","95.0 - 97.0","?C","96.0","Celsius"
"NC1=CC=CN(CC2=CC=C(F)C=C2)C1=O","-","EN300-104384","4551","3-amino-1-[(4-fluorophenyl)methyl]-1,2-dihydropyridin-2-one","-","A55638","25489863","-","-","110.0 - 112.0","?C","111.0","Celsius"
"OC(=O)CCCNS(=O)(=O)C1=CC(=CC=C1)C(F)(F)F","-","EN300-10439","4554","4-({[3-(trifluoromethyl)phenyl]sulfonyl}amino)butanoic acid","-","A55638","25489863","-","-","152.0 - 155.0","?C","154.0","Celsius"
"O=C1CCC2=C1C=C1OCCOC1=C2","-","EN300-104401","4556","2H,3H,6H,7H,8H-indeno[5,6-b][1,4]dioxin-6-one","-","A55638","25489863","-","-","118.0 - 120.0","?C","119.0","Celsius"
"CC(C)(C)C1=CC=C(C=C1)S(N)(=O)=O","-","EN300-104409","4558","4-tert-butylbenzene-1-sulfonamide","-","A55638","25489863","-","-","136.0 - 138.0","?C","137.0","Celsius"
"CNC1=NC=NC=C1","-","EN300-104410","4559","N-methylpyrimidin-4-amine","-","A55638","25489863","-","-","77.0 - 79.0","?C","78.0","Celsius"
"ClC1=C(Br)SC(=C1)S(Cl)(=O)=O","-","EN300-104411","4560","5-bromo-4-chlorothiophene-2-sulfonyl chloride","-","A55638","25489863","-","-","61.0 - 63.0","?C","62.0","Celsius"
"CCC(C)C1=CC=C(C=C1)C(O)=O","-","EN300-104412","4561","4-(butan-2-yl)benzoic acid","-","A55638","25489863","-","-","88.0 - 90.0","?C","89.0","Celsius"
"CC1=C(F)C=C(C(O)=O)C(F)=C1","-","EN300-104448","4569","2,5-difluoro-4-methylbenzoic acid","-","A55638","25489863","-","-","167.0 - 169.0","?C","168.0","Celsius"
"ClC1=NC2=C(C=CC=C2Br)C=C1","-","EN300-104450","4570","8-bromo-2-chloroquinoline","-","A55638","25489863","-","-","112.0 - 114.0","?C","113.0","Celsius"
"COC1=C(NC(=O)C2CCC2)C=C(Br)C=C1","-","EN300-104461","4571","N-(5-bromo-2-methoxyphenyl)cyclobutanecarboxamide","-","A55638","25489863","-","-","84.0 - 86.0","?C","85.0","Celsius"
"ClC1=NN=C(S1)C1=C2C=CC=NC2=CC=C1","-","EN300-104463","4572","5-(5-chloro-1,3,4-thiadiazol-2-yl)quinoline","-","A55638","25489863","-","-","143.0 - 145.0","?C","144.0","Celsius"
"FC1=CC2=C(OCC(=O)N2)C=C1","-","EN300-104465","4573","6-fluoro-3,4-dihydro-2H-1,4-benzoxazin-3-one","-","A55638","25489863","-","-","204.0 - 206.0","?C","205.0","Celsius"
"CCOC(=O)CN1C(=O)C(=O)C2=C1C=CC=C2","41042-21-1","EN300-10447","4574","ethyl (2,3-dioxo-2,3-dihydro-1H-indol-1-yl)acetate","-","A55638","25489863","-","-","127.0 - 129.0","?C","128.0","Celsius"
"CC(NS(=O)(=O)C1=CN(C)N=C1)C(O)=O","-","EN300-104479","4577","2-(1-methyl-1H-pyrazole-4-sulfonamido)propanoic acid","-","A55638","25489863","-","-","169.0 - 171.0","?C","170.0","Celsius"
"OC(=O)CC1=C(Br)C=C(C=C1)[N+]([O-])=O","-","EN300-104480","4578","2-(2-bromo-4-nitrophenyl)acetic acid","-","A55638","25489863","-","-","164.0 - 166.0","?C","165.0","Celsius"
"NC1(CCS(=O)(=O)CC1)C(O)=O","-","EN300-104482","4580","4-aminotetrahydro-2H-thiopyran-4-carboxylic acid 1,1-dioxide","-","A55638","25489863","-","-","294.0 - 296.0","?C","295.0","Celsius"
"ClCC1=CC=C(C=C1)C1=NC2=C(S1)C=CC(Cl)=C2","-","EN300-104499","4581","5-chloro-2-[4-(chloromethyl)phenyl]-1,3-benzothiazole","-","A55638","25489863","-","-","164.0 - 166.0","?C","165.0","Celsius"
"CCOC(OCC)C1=NNC(=C1)C1=CC(F)=CC=C1","-","EN300-104500","4582","3-(diethoxymethyl)-5-(3-fluorophenyl)-1H-pyrazole","-","A55638","25489863","-","-","82.0 - 84.0","?C","83.0","Celsius"
"CC1=CC2=NN=C(N)N2C=C1","-","EN300-104505","4583","7-methyl-[1,2,4]triazolo[4,3-a]pyridin-3-amine","-","A55638","25489863","-","-","287.0 - 289.0","?C","288.0","Celsius"
"COC(=O)CCOC1=C(Cl)C=C(Cl)C=C1","-","EN300-104506","4584","methyl 3-(2,4-dichlorophenoxy)propanoate","-","A55638","25489863","-","-","35.0 - 37.0","?C","36.0","Celsius"
"NC1=NC(CCCC(O)=O)=CS1","-","EN300-104508","4585","4-(2-amino-1,3-thiazol-4-yl)butanoic acid","-","A55638","25489863","-","-","89.0 - 91.0","?C","90.0","Celsius"
"NC1=CC=CN(CC2=CC=CC=C2)C1=O","-","EN300-104510","4587","3-amino-1-benzyl-1,2-dihydropyridin-2-one","-","A55638","25489863","-","-","119.0 - 121.0","?C","120.0","Celsius"
"CCS(=O)(=O)NC1=C(OC)C=CC(Br)=C1","-","EN300-104511","4588","N-(5-bromo-2-methoxyphenyl)ethane-1-sulfonamide","-","A55638","25489863","-","-","105.0 - 107.0","?C","106.0","Celsius"
"NC1=CC=C(C=C1)C1=CC2=C(O1)C=CC=C2","782-18-3","EN300-10452","4589","4-(1-benzofuran-2-yl)aniline","-","A55638","25489863","-","-","281.0 - 283.0","?C","282.0","Celsius"
"CCN1N=C(N)C=C1C(F)(F)F","-","EN300-104525","4590","1-ethyl-5-(trifluoromethyl)-1H-pyrazol-3-amine","-","A55638","25489863","-","-","54.0 - 56.0","?C","55.0","Celsius"
"CN(C)CC1=CC=C(O1)C(=O)NN","103852-00-2","EN300-10453","4591","5-[(dimethylamino)methyl]-2-furohydrazide","-","A55638","25489863","-","-","116.0 - 118.0","?C","117.0","Celsius"
"OC(=O)CC1=CC=C(NS(=O)(=O)C2=CC(Cl)=C(Cl)C=C2)C=C1","-","EN300-10454","4593","(4-{[(3,4-dichlorophenyl)sulfonyl]amino}phenyl)acetic acid","-","A55638","25489863","-","-","174.0 - 176.0","?C","175.0","Celsius"
"CN(C)C=C(Br)C=O","-","EN300-104547","4594","2-bromo-3-(dimethylamino)prop-2-enal","-","A55638","25489863","-","-","48.0 - 50.0","?C","49.0","Celsius"
"CC1=NC(CCl)=NC(O)=C1","-","EN300-104548","4595","2-(chloromethyl)-6-methylpyrimidin-4-ol","-","A55638","25489863","-","-","147.0 - 149.0","?C","148.0","Celsius"
"OCC1=NC(=NC=C1)C1=CC=CC=C1","-","EN300-104549","4596","(2-phenylpyrimidin-4-yl)methanol","-","A55638","25489863","-","-","43.0 - 45.0","?C","44.0","Celsius"
"CCOC(=O)C1=C(N)N(N=C1)C1=NC=CC=N1","-","EN300-104550","4597","ethyl 5-amino-1-(pyrimidin-2-yl)-1H-pyrazole-4-carboxylate","-","A55638","25489863","-","-","181.0 - 183.0","?C","182.0","Celsius"
"OC(=O)C(F)=C1CCCC1","-","EN300-104551","4598","2-cyclopentylidene-2-fluoroacetic acid","-","A55638","25489863","-","-","83.0 - 85.0","?C","84.0","Celsius"
"CCOC(OCC)C1=NN=CN1","-","EN300-104552","4599","3-(diethoxymethyl)-4H-1,2,4-triazole","-","A55638","25489863","-","-","59.0 - 61.0","?C","60.0","Celsius"
"CC1=CC=C(C=C1)N1N=C(Br)C=C1C(O)=O","-","EN300-104553","4600","3-bromo-1-(4-methylphenyl)-1H-pyrazole-5-carboxylic acid","-","A55638","25489863","-","-","219.0 - 221.0","?C","220.0","Celsius"
"CC1=C(OC(CN)=N1)C1=CC=C(Cl)C=C1","-","EN300-104554","4601","[5-(4-chlorophenyl)-4-methyl-1,3-oxazol-2-yl]methanamine","-","A55638","25489863","-","-","69.0 - 71.0","?C","70.0","Celsius"
"COC1=C(CN2C(=O)CNC2=O)C=C(Br)C=C1","-","EN300-104557","4602","3-[(5-bromo-2-methoxyphenyl)methyl]imidazolidine-2,4-dione","-","A55638","25489863","-","-","183.0 - 185.0","?C","184.0","Celsius"
"NC1=NC2=C(N1)C=C(F)C(F)=C2","-","EN300-104574","4604","5,6-difluoro-1H-1,3-benzodiazol-2-amine","-","A55638","25489863","-","-","144.0 - 146.0","?C","145.0","Celsius"
"OC(=O)C1=CC(Cl)=C(OC2=CC=C(Cl)C=C2)C=C1","-","EN300-104575","4605","3-chloro-4-(4-chlorophenoxy)benzoic acid","-","A55638","25489863","-","-","167.0 - 169.0","?C","168.0","Celsius"
"NC1=NC2=C(N1)C=CC=C2Cl","-","EN300-104576","4606","4-chloro-1H-1,3-benzodiazol-2-amine","-","A55638","25489863","-","-","143.0 - 145.0","?C","144.0","Celsius"
"CC1=CC2=C(NCCN2)N=C1","-","EN300-104577","4607","7-methyl-1H,2H,3H,4H-pyrido[2,3-b]pyrazine","-","A55638","25489863","-","-","127.0 - 129.0","?C","128.0","Celsius"
"ClCC(=O)NC1CS(=O)(=O)CC1Cl","-","EN300-10458","4608","2-chloro-N-(4-chloro-1,1-dioxidotetrahydrothien-3-yl)acetamide","-","A55638","25489863","-","-","181.0 - 190.0","?C","186.0","Celsius"
"COC1=CC(=C(Br)C=C1)S(N)(=O)=O","-","EN300-104589","4610","2-bromo-5-methoxybenzene-1-sulfonamide","-","A55638","25489863","-","-","119.0 - 121.0","?C","120.0","Celsius"
"OC(=O)CNC1CCS(=O)(=O)C1","51070-56-5","EN300-10459","4611","[(1,1-dioxidotetrahydrothien-3-yl)amino]acetic acid","-","A55638","25489863","-","-","241.0 - 243.0","?C","242.0","Celsius"
"NCCCN1C(=O)C2C3CC(C=C3)C2C1=O","-","EN300-104590","4612","4-(3-aminopropyl)-4-azatricyclo[5.2.1.0~2,6~]dec-8-ene-3,5-dione","-","A55638","25489863","-","-","66.0 - 68.0","?C","67.0","Celsius"
"NC(CO)C1=CC=C(Br)C=C1","-","EN300-104593","4613","2-amino-2-(4-bromophenyl)ethan-1-ol","-","A55638","25489863","-","-","89.0 - 91.0","?C","90.0","Celsius"
"COCC1=C(N)C=CC(=C1)[N+]([O-])=O","-","EN300-104595","4614","2-(methoxymethyl)-4-nitroaniline","-","A55638","25489863","-","-","83.0 - 85.0","?C","84.0","Celsius"
"NC1=NC=C(CCC(O)=O)C=C1","-","EN300-104600","4615","3-(6-aminopyridin-3-yl)propanoic acid","-","A55638","25489863","-","-","199.0 - 201.0","?C","200.0","Celsius"
"CC(O)C1=CC=C(C=C1)S(=O)(=O)NC1=CC=C(C=C1)C(O)=O","-","EN300-10462","4616","4-({[4-(1-hydroxyethyl)phenyl]sulfonyl}amino)benzoic acid","-","A55638","25489863","-","-","199.0 - 201.0","?C","200.0","Celsius"
"CC1=CC=C(C=C1)S(=O)(=O)NC1=C(C=CC(Cl)=C1)C(O)=O","31100-24-0","EN300-10463","4617","4-chloro-2-{[(4-methylphenyl)sulfonyl]amino}benzoic acid","-","A55638","25489863","-","-","205.0 - 207.0","?C","206.0","Celsius"
"ClCC1=CN(N=C1C1=CC=CC=C1)C1=CC=CC=C1","-","EN300-10468","4619","4-(chloromethyl)-1,3-diphenyl-1H-pyrazole","-","A55638","25489863","-","-","87.0 - 89.0","?C","88.0","Celsius"
"OC(=O)C1=CC(SCC#C)=CC=C1","-","EN300-104682","4620","3-(prop-2-yn-1-ylsulfanyl)benzoic acid","-","A55638","25489863","-","-","121.0 - 123.0","?C","122.0","Celsius"
"FC1=CC=CC(F)=C1N1CCC(Br)C1=O","-","EN300-104683","4621","3-bromo-1-(2,6-difluorophenyl)pyrrolidin-2-one","-","A55638","25489863","-","-","79.0 - 81.0","?C","80.0","Celsius"
"CC(NC(=O)CCl)C1=CC2=C(C=CC=C2)C=C1","-","EN300-10469","4622","2-chloro-N-[1-(2-naphthyl)ethyl]acetamide","-","A55638","25489863","-","-","201.0 - 203.0","?C","202.0","Celsius"
"OC(=O)C1=CC=C(S1)S(=O)(=O)C1=CC=CC=C1","-","EN300-104693","4623","5-(benzenesulfonyl)thiophene-2-carboxylic acid","-","A55638","25489863","-","-","192.0 - 194.0","?C","193.0","Celsius"
"COC(=O)C1=CC(=CC(N)=C1)S(C)(=O)=O","-","EN300-104694","4624","methyl 3-amino-5-methanesulfonylbenzoate","-","A55638","25489863","-","-","194.0 - 196.0","?C","195.0","Celsius"
"CC1=NN(C(N)=C1)C1=NC=CC=N1","-","EN300-104709","4625","3-methyl-1-(pyrimidin-2-yl)-1H-pyrazol-5-amine","-","A55638","25489863","-","-","203.0 - 205.0","?C","204.0","Celsius"
"NC1CCN(C1=O)C1=C(F)C=CC=C1F","-","EN300-104710","4626","3-amino-1-(2,6-difluorophenyl)pyrrolidin-2-one","-","A55638","25489863","-","-","62.0 - 64.0","?C","63.0","Celsius"
"OC(=O)C1=C(Cl)C(=NN1)C1CC1","-","EN300-104711","4627","4-chloro-3-cyclopropyl-1H-pyrazole-5-carboxylic acid","-","A55638","25489863","-","-","231.0 - 233.0","?C","232.0","Celsius"
"CC(C)(C)OC(=O)NC(C(O)=O)C1=CC=CC=C1","-","EN300-104717","4628","2-{[(tert-butoxy)carbonyl]amino}-2-phenylacetic acid","-","A55638","25489863","-","-","113.0 - 115.0","?C","114.0","Celsius"
"CC(C)C1=NC(=CC=C1)C(O)=O","-","EN300-104733","4630","6-(propan-2-yl)pyridine-2-carboxylic acid","-","A55638","25489863","-","-","63.0 - 65.0","?C","64.0","Celsius"
"SC1=NN=C(CN2CCCC2=O)O1","-","EN300-10474","4631","1-[(5-mercapto-1,3,4-oxadiazol-2-yl)methyl]pyrrolidin-2-one","-","A55638","25489863","-","-","172.0 - 174.0","?C","173.0","Celsius"
"COC1=C(S)C=CC(=C1)C(C)=O","-","EN300-104744","4632","1-(3-methoxy-4-sulfanylphenyl)ethan-1-one","-","A55638","25489863","-","-","58.0 - 60.0","?C","59.0","Celsius"
"CC1=NN(C(N)=C1Br)C1=NC=CC=N1","-","EN300-104764","4633","4-bromo-3-methyl-1-(pyrimidin-2-yl)-1H-pyrazol-5-amine","-","A55638","25489863","-","-","159.0 - 161.0","?C","160.0","Celsius"
"NCC1=C(Cl)C=C(C=C1)N1C=NC=N1","-","EN300-104765","4634","[2-chloro-4-(1H-1,2,4-triazol-1-yl)phenyl]methanamine","-","A55638","25489863","-","-","111.0 - 113.0","?C","112.0","Celsius"
"NNC1=NC(=CS1)C(F)(F)F","-","EN300-104775","4635","2-hydrazinyl-4-(trifluoromethyl)-1,3-thiazole","-","A55638","25489863","-","-","122.0 - 124.0","?C","123.0","Celsius"
"SC1=NC(=NO1)C1=CC2=C(O1)C=CC=C2","-","EN300-104784","4636","3-(1-benzofuran-2-yl)-1,2,4-oxadiazole-5-thiol","-","A55638","25489863","-","-","152.0 - 154.0","?C","153.0","Celsius"
"CC1=C(C=CC=C1)C1=NOC(S)=N1","-","EN300-104790","4637","3-(2-methylphenyl)-1,2,4-oxadiazole-5-thiol","-","A55638","25489863","-","-","150.0 - 152.0","?C","151.0","Celsius"
"ClCC(=O)NC(=O)NC1CC1","-","EN300-10480","4638","2-chloro-N-[(cyclopropylamino)carbonyl]acetamide","-","A55638","25489863","-","-","105.0 - 107.0","?C","106.0","Celsius"
"FC1=CC(=CC(F)=C1S(Cl)(=O)=O)C#N","-","EN300-104806","4639","4-cyano-2,6-difluorobenzene-1-sulfonyl chloride","-","A55638","25489863","-","-","92.0 - 94.0","?C","93.0","Celsius"
"ClCC(=O)NC(=O)NCCC1=CCCCC1","-","EN300-10482","4640","2-chloro-N-{[(2-cyclohex-1-en-1-ylethyl)amino]carbonyl}acetamide","-","A55638","25489863","-","-","200.0 - 202.0","?C","201.0","Celsius"
"NCCN1C(=O)C2C3CC(C=C3)C2C1=O","-","EN300-104823","4641","4-(2-aminoethyl)-4-azatricyclo[5.2.1.0~2,6~]dec-8-ene-3,5-dione","-","A55638","25489863","-","-","69.0 - 71.0","?C","70.0","Celsius"
"CC1=C(C)C=C(C=C1)C1=CSC2=C1C(Cl)=NC=N2","-","EN300-10483","4642","4-chloro-5-(3,4-dimethylphenyl)thieno[2,3-d]pyrimidine","-","A55638","25489863","-","-","179.0 - 181.0","?C","180.0","Celsius"
"CCCOC1=C(NC(=O)CCl)C=C(C=C1)C(F)(F)F","-","EN300-10484","4643","2-chloro-N-[2-propoxy-5-(trifluoromethyl)phenyl]acetamide","-","A55638","25489863","-","-","73.0 - 75.0","?C","74.0","Celsius"
"ClCC1=NN=C(O1)C1=CC=CO1","-","EN300-10486","4645","2-(chloromethyl)-5-(2-furyl)-1,3,4-oxadiazole","-","A55638","25489863","-","-","81.0 - 83.0","?C","82.0","Celsius"
"OC(=O)C1CC(C1)C1=CC=C(Cl)C=C1","-","EN300-104862","4646","3-(4-chlorophenyl)cyclobutane-1-carboxylic acid","-","A55638","25489863","-","-","119.0 - 121.0","?C","120.0","Celsius"
"CC1=CC(N2CCOCC2)=C(C=C1)C#N","-","EN300-104863","4647","4-methyl-2-(morpholin-4-yl)benzonitrile","-","A55638","25489863","-","-","86.0 - 88.0","?C","87.0","Celsius"
"CC1=C(C=C(C=C1[N+]([O-])=O)C(O)=O)S(Cl)(=O)=O","-","EN300-104866","4648","3-(chlorosulfonyl)-4-methyl-5-nitrobenzoic acid","-","A55638","25489863","-","-","176.0 - 178.0","?C","177.0","Celsius"
"CN1C=NC(=C1)S(=O)(=O)NCC(O)=O","-","EN300-104868","4649","2-(1-methyl-1H-imidazole-4-sulfonamido)acetic acid","-","A55638","25489863","-","-","211.0 - 213.0","?C","212.0","Celsius"
"CC1=CC(F)=C(C=C1)C(N)=O","-","EN300-104869","4650","2-fluoro-4-methylbenzamide","-","A55638","25489863","-","-","145.0 - 147.0","?C","146.0","Celsius"
"ClC1=C2C=CC=CC2=NC(=N1)C1=CC=CS1","59455-95-7","EN300-10487","4651","4-chloro-2-thien-2-ylquinazoline","-","A55638","25489863","-","-","123.0 - 125.0","?C","124.0","Celsius"
"OC(=O)CCC1=CC2=C(OCC2)C=C1","-","EN300-104870","4652","3-(2,3-dihydro-1-benzofuran-5-yl)propanoic acid","-","A55638","25489863","-","-","92.0 - 94.0","?C","93.0","Celsius"
"CC(C)(C)OC(=O)NC1=NC=C(C=O)C=C1","-","EN300-104871","4653","tert-butyl N-(5-formylpyridin-2-yl)carbamate","-","A55638","25489863","-","-","169.0 - 171.0","?C","170.0","Celsius"
"OC(=O)C1=CN=C(CC2=CC=CC=C2)S1","-","EN300-104873","4654","2-benzyl-1,3-thiazole-5-carboxylic acid","-","A55638","25489863","-","-","199.0 - 201.0","?C","200.0","Celsius"
"ClC1=C2C=CC=CC2=C(C=C1)S(Cl)(=O)=O","-","EN300-104874","4655","4-chloronaphthalene-1-sulfonyl chloride","-","A55638","25489863","-","-","90.0 - 92.0","?C","91.0","Celsius"
"OC(=O)C1=CC=C(C=C1)C1=CSC=N1","-","EN300-104880","4656","4-(1,3-thiazol-4-yl)benzoic acid","-","A55638","25489863","-","-","278.0 - 280.0","?C","279.0","Celsius"
"CCCOC1=C(N)C=C(C=C1)C(O)=O","-","EN300-104881","4657","3-Amino-4-propoxybenzoic acid","-","A55638","25489863","-","-","122.0 - 124.0","?C","123.0","Celsius"
"CC(CS(=O)(=O)C1=CC=C(Br)C=C1)C(O)=O","-","EN300-104885","4658","3-[(4-bromobenzene)sulfonyl]-2-methylpropanoic acid","-","A55638","25489863","-","-","144.0 - 146.0","?C","145.0","Celsius"
"OCC(NS(=O)(=O)C1=CC=C(Cl)C=C1)C(O)=O","-","EN300-104888","4659","2-[(4-chlorobenzene)sulfonamido]-3-hydroxypropanoic acid","-","A55638","25489863","-","-","206.0 - 208.0","?C","207.0","Celsius"
"COC(=O)CCCC1=CSC(N)=N1","-","EN300-104889","4660","methyl 4-(2-amino-1,3-thiazol-4-yl)butanoate","-","A55638","25489863","-","-","69.0 - 71.0","?C","70.0","Celsius"
"NNC(=O)CC1=CC=C(F)C=C1","34547-28-9","EN300-10492","4661","2-(4-fluorophenyl)acetohydrazide","-","A55638","25489863","-","-","129.0 - 131.0","?C","130.0","Celsius"
"ClC(C(=O)NC1=CN=CC=C1)C(=O)C1=CC=CC=C1","-","EN300-10493","4662","2-chloro-3-oxo-3-phenyl-N-pyridin-3-ylpropanamide","-","A55638","25489863","-","-","86.0 - 90.0","?C","88.0","Celsius"