"SMILES","CASRN","EXTERNALID","N","NAME","NAME","ARTICLEID","PUBMEDID","PAGE","TABLE","Melting Point {measured}","UNIT {Melting Point}","Melting Point {measured, converted}","UNIT {Melting Point}"
"COC1=CC2=C(CC(NC2)C2=CC=CC=C2)C=C1","-","EN300-107379","5265","7-methoxy-3-phenyl-1,2,3,4-tetrahydroisoquinoline","-","A55638","25489863","-","-","90.0 - 92.0","?C","91.0","Celsius"
"NC1CCS(=O)(=O)C2=C1C=C(Cl)C=C2","-","EN300-107380","5266","4-amino-6-chloro-3,4-dihydro-2H-1$l^{6}-benzothiopyran-1,1-dione","-","A55638","25489863","-","-","57.0 - 59.0","?C","58.0","Celsius"
"COC1=C(OC)C=C(C(O)=O)C(F)=C1","-","EN300-107381","5267","2-fluoro-4,5-dimethoxybenzoic acid","-","A55638","25489863","-","-","192.0 - 194.0","?C","193.0","Celsius"
"OC(=O)C1=CN=C(NCC=C)S1","-","EN300-107384","5268","2-(prop-2-en-1-ylamino)-1,3-thiazole-5-carboxylic acid","-","A55638","25489863","-","-","169.0 - 171.0","?C","170.0","Celsius"
"FC(F)(F)C1=C2NC(=O)C(=O)C2=CC=C1","391-12-8","EN300-10741","5271","7-(trifluoromethyl)-1H-indole-2,3-dione","-","A55638","25489863","-","-","187.0 - 189.0","?C","188.0","Celsius"
"OC(=O)C1CCCCS1(=O)=O","-","EN300-107435","5272","1,1-dioxo-1$l^{6}-thiane-2-carboxylic acid","-","A55638","25489863","-","-","166.0 - 168.0","?C","167.0","Celsius"
"OC(=O)C1SCCS1","-","EN300-107439","5273","1,3-Dithiolane-2-carboxylic acid","-","A55638","25489863","-","-","84.0 - 86.0","?C","85.0","Celsius"
"COC(=O)C1=NSN=C1C(O)=O","-","EN300-107442","5274","4-(methoxycarbonyl)-1,2,5-thiadiazole-3-carboxylic acid","-","A55638","25489863","-","-","82.0 - 84.0","?C","83.0","Celsius"
"CC1CC2=C(C=CC=C2Br)C(=O)N1","-","EN300-107445","5275","5-bromo-3-methyl-1,2,3,4-tetrahydroisoquinolin-1-one","-","A55638","25489863","-","-","135.0 - 137.0","?C","136.0","Celsius"
"CCC1CC2=C(C=CC=C2Br)C(=O)N1","-","EN300-107446","5276","5-bromo-3-ethyl-1,2,3,4-tetrahydroisoquinolin-1-one","-","A55638","25489863","-","-","101.0 - 103.0","?C","102.0","Celsius"
"COC1=C2CCC(=O)C2=CC=C1","-","EN300-107450","5278","4-methoxy-2,3-dihydro-1H-inden-1-one","-","A55638","25489863","-","-","105.0 - 107.0","?C","106.0","Celsius"
"CCC1=CC=C(C=C1)C1=NOC(S)=N1","-","EN300-107458","5280","3-(4-ethylphenyl)-1,2,4-oxadiazole-5-thiol","-","A55638","25489863","-","-","159.0 - 161.0","?C","160.0","Celsius"
"FC1=C2NC(=O)COC2=CC=C1","-","EN300-107462","5281","5-fluoro-3,4-dihydro-2H-1,4-benzoxazin-3-one","-","A55638","25489863","-","-","172.0 - 174.0","?C","173.0","Celsius"
"OC(=O)CN1CSCC1=O","-","EN300-10747","5282","(4-oxo-1,3-thiazolidin-3-yl)acetic acid","-","A55638","25489863","-","-","171.0 - 173.0","?C","172.0","Celsius"
"CC(N1C(N)=NC2=C1C=CC=C2)C1=CC=CC=C1","-","EN300-107490","5283","1-(1-phenylethyl)-1H-1,3-benzodiazol-2-amine","-","A55638","25489863","-","-","124.0 - 126.0","?C","125.0","Celsius"
"CC(C)N1N=CC2=C1C=CC(=C2)S(Cl)(=O)=O","-","EN300-107491","5284","1-(propan-2-yl)-1H-indazole-5-sulfonyl chloride","-","A55638","25489863","-","-","88.0 - 90.0","?C","89.0","Celsius"
"OC(=O)C1CCNC(=O)C1","-","EN300-107493","5285","2-oxopiperidine-4-carboxylic acid","-","A55638","25489863","-","-","164.0 - 166.0","?C","165.0","Celsius"
"NC1=CC(OCCF)=CC=C1","-","EN300-107499","5286","3-(2-fluoroethoxy)aniline","-","A55638","25489863","-","-","33.0 - 35.0","?C","34.0","Celsius"
"CCOC1=CC=C(C=C1)C(=O)CCl","64953-82-8","EN300-10750","5287","2-chloro-1-(4-ethoxyphenyl)ethanone","-","A55638","25489863","-","-","63.0 - 65.0","?C","64.0","Celsius"
"CC1=C(C)C(Cl)=NN2C1=NN=C2C(F)(F)F","-","EN300-107508","5288","6-chloro-7,8-dimethyl-3-(trifluoromethyl)-[1,2,4]triazolo[4,3-b]pyridazine","-","A55638","25489863","-","-","93.0 - 95.0","?C","94.0","Celsius"
"CCC1=C(C)C=C(O1)C(O)=O","-","EN300-107510","5290","5-ethyl-4-methylfuran-2-carboxylic acid","-","A55638","25489863","-","-","133.0 - 135.0","?C","134.0","Celsius"
"CC1=COC(=N1)C1=CC(N)=C(C)C=C1","-","EN300-107513","5291","2-methyl-5-(4-methyl-1,3-oxazol-2-yl)aniline","-","A55638","25489863","-","-","114.0 - 116.0","?C","115.0","Celsius"
"CC(C)CCC1CCC(=O)NC1=O","-","EN300-107514","5292","3-(3-methylbutyl)piperidine-2,6-dione","-","A55638","25489863","-","-","117.0 - 119.0","?C","118.0","Celsius"
"CC(C)=C(F)C(O)=O","-","EN300-107517","5294","2-fluoro-3-methylbut-2-enoic acid","-","A55638","25489863","-","-","64.0 - 66.0","?C","65.0","Celsius"
"COC(=O)C1=C(F)C(Cl)=CC=N1","-","EN300-107519","5295","methyl 4-chloro-3-fluoropyridine-2-carboxylate","-","A55638","25489863","-","-","49.0 - 51.0","?C","50.0","Celsius"
"COC(=O)C1=C(F)C=CC=N1","-","EN300-107521","5296","methyl 3-fluoropyridine-2-carboxylate","-","A55638","25489863","-","-","81.0 - 83.0","?C","82.0","Celsius"
"OC(NC1=NC=CN=C1)=C1N=CC=CC1=O","-","EN300-107522","5297","3-hydroxy-N-pyrazin-2-ylpyridine-2-carboxamide","-","A55638","25489863","-","-","156.0 - 158.0","?C","157.0","Celsius"
"C(OC1=C2C=CNC2=CC=C1)C1CO1","-","EN300-107525","5298","4-(oxiran-2-ylmethoxy)-1H-indole","-","A55638","25489863","-","-","52.0 - 54.0","?C","53.0","Celsius"
"CCC1=NC2=C(S1)C(O)CCC2","-","EN300-107528","5299","2-ethyl-4,5,6,7-tetrahydro-1,3-benzothiazol-7-ol","-","A55638","25489863","-","-","75.0 - 77.0","?C","76.0","Celsius"
"OC(CCC1=CC=CC=C1)CCC1=CC=CC=C1","-","EN300-107529","5300","1,5-diphenylpentan-3-ol","-","A55638","25489863","-","-","44.0 - 46.0","?C","45.0","Celsius"
"OC(=O)CNC(=O)C=CC1=CC=CC=C1","-","EN300-10753","5301","{[(2E)-3-phenylprop-2-enoyl]amino}acetic acid","-","A55638","25489863","-","-","191.0 - 193.0","?C","192.0","Celsius"
"CS(=O)(=O)CC1=C(N)C=CC(F)=C1","-","EN300-107531","5302","4-fluoro-2-(methanesulfonylmethyl)aniline","-","A55638","25489863","-","-","126.0 - 128.0","?C","127.0","Celsius"
"CC1=CC=C(C=C1)C1=NNC=C1Br","-","EN300-107532","5303","4-bromo-3-(4-methylphenyl)-1H-pyrazole","-","A55638","25489863","-","-","104.0 - 106.0","?C","105.0","Celsius"
"CC1=CC(C(=O)CCl)=C(C)N1NC(=O)C1=CC=CC=C1","-","EN300-10754","5304","N-[3-(chloroacetyl)-2,5-dimethyl-1H-pyrrol-1-yl]benzamide","-","A55638","25489863","-","-","141.0 - 143.0","?C","142.0","Celsius"
"CC1CCN(CC(O)=O)CC1","-","EN300-107547","5305","2-(4-methylpiperidin-1-yl)acetic acid","-","A55638","25489863","-","-","147.0 - 149.0","?C","148.0","Celsius"
"OC(=O)C1CCN(CC1)C(=O)C=CC1=CC=CC=C1","-","EN300-10755","5306","1-[(2E)-3-phenylprop-2-enoyl]piperidine-4-carboxylic acid","-","A55638","25489863","-","-","191.0 - 196.0","?C","194.0","Celsius"
"CCOC1=C(OC(F)F)C(C=O)=CC=C1","-","EN300-10757","5312","2-(difluoromethoxy)-3-ethoxybenzaldehyde","-","A55638","25489863","-","-","41.0 - 43.0","?C","42.0","Celsius"
"CCOC1=CC(=CC(OCC)=C1OCC)C(=O)N1CCCC(C1)C(O)=O","-","EN300-107571","5313","1-[(3,4,5-triethoxyphenyl)carbonyl]piperidine-3-carboxylic acid","-","A55638","25489863","-","-","183.0 - 185.0","?C","184.0","Celsius"
"COC1=CC(=CC(OC)=C1OC)C(=O)N1CCCC(C1)C(O)=O","-","EN300-107572","5314","1-[(3,4,5-trimethoxyphenyl)carbonyl]piperidine-3-carboxylic acid","-","A55638","25489863","-","-","189.0 - 191.0","?C","190.0","Celsius"
"CCOC1=C(OCC)C=C(C=C1)C(=O)N1CCCC(C1)C(O)=O","-","EN300-107573","5315","1-[(3,4-diethoxyphenyl)carbonyl]piperidine-3-carboxylic acid","-","A55638","25489863","-","-","189.0 - 191.0","?C","190.0","Celsius"
"CC1=CC(=CC(C)=C1S(Cl)(=O)=O)C(C)(C)C","70823-04-0","EN300-10758","5316","4-tert-butyl-2,6-dimethylbenzenesulfonyl chloride","-","A55638","25489863","-","-","113.0 - 115.0","?C","114.0","Celsius"
"CC(CN1CC(C)OC(C)C1)C(=O)NN","-","EN300-10760","5317","3-(2,6-dimethylmorpholin-4-yl)-2-methylpropanohydrazide","-","A55638","25489863","-","-","70.0 - 72.0","?C","71.0","Celsius"
"CC1=NC(=NN1)C1=CC(NC(=O)CCl)=C(C)C=C1","-","EN300-107665","5318","2-chloro-N-[2-methyl-5-(5-methyl-1H-1,2,4-triazol-3-yl)phenyl]acetamide","-","A55638","25489863","-","-","297.0 - 299.0","?C","298.0","Celsius"
"CC1=C(NC(=O)CCl)C=C(C=C1)S(N)(=O)=O","-","EN300-107669","5319","2-chloro-N-(2-methyl-5-sulfamoylphenyl)acetamide","-","A55638","25489863","-","-","179.0 - 181.0","?C","180.0","Celsius"
"ClCC1=COC(=N1)C1=CC=CC=C1","30494-97-4","EN300-10767","5320","4-(chloromethyl)-2-phenyl-1,3-oxazole","-","A55638","25489863","-","-","51.0 - 55.0","?C","53.0","Celsius"
"COC1=C(NC(=O)CCl)C=C(C=C1)S(N)(=O)=O","-","EN300-107670","5321","2-chloro-N-(2-methoxy-5-sulfamoylphenyl)acetamide","-","A55638","25489863","-","-","169.0 - 171.0","?C","170.0","Celsius"
"CC(C)OC1=NC=CC(=C1)C(O)=O","-","EN300-107674","5322","2-(propan-2-yloxy)pyridine-4-carboxylic acid","-","A55638","25489863","-","-","145.0 - 147.0","?C","146.0","Celsius"
"OC(=O)CSC1=C(C=CC=C1)[N+]([O-])=O","6375-65-1","EN300-10770","5325","[(2-nitrophenyl)thio]acetic acid","-","A55638","25489863","-","-","166.0 - 168.0","?C","167.0","Celsius"
"CC1=C(Cl)N=CC(C=O)=C1","-","EN300-107717","5327","6-chloro-5-methylpyridine-3-carbaldehyde","-","A55638","25489863","-","-","47.0 - 49.0","?C","48.0","Celsius"
"CCOC(=O)CNC1=CC(Cl)=CC(Cl)=C1","-","EN300-107719","5328","ethyl 2-[(3,5-dichlorophenyl)amino]acetate","-","A55638","25489863","-","-","99.0 - 101.0","?C","100.0","Celsius"
"O=CC1=CNC2=C1C=C(C=C2)C#N","-","EN300-107720","5329","3-formyl-1H-indole-5-carbonitrile","-","A55638","25489863","-","-","239.0 - 241.0","?C","240.0","Celsius"
"O=C1CCCCC1N1CCS(=O)(=O)CC1","-","EN300-107721","5330","4-(2-oxocyclohexyl)-1$l^{6},4-thiomorpholine-1,1-dione","-","A55638","25489863","-","-","105.0 - 107.0","?C","106.0","Celsius"
"C#CC1=NC2=C(S1)C=CC=C2","-","EN300-107722","5331","2-ethynyl-1,3-benzothiazole","-","A55638","25489863","-","-","39.0 - 41.0","?C","40.0","Celsius"
"NC(=O)C1=COC(Br)=C1","-","EN300-107723","5332","5-bromofuran-3-carboxamide","-","A55638","25489863","-","-","165.0 - 167.0","?C","166.0","Celsius"
"CN1N=C(C)C(C(O)C(F)(F)F)=C1C","-","EN300-107735","5335","2,2,2-trifluoro-1-(1,3,5-trimethyl-1H-pyrazol-4-yl)ethan-1-ol","-","A55638","25489863","-","-","140.0 - 142.0","?C","141.0","Celsius"
"CC1=C(C=C(I)C=C1)C(O)=O","-","EN300-107760","5340","5-Iodo-2-methylbenzoic acid","-","A55638","25489863","-","-","166.0 - 168.0","?C","167.0","Celsius"
"OC(=O)C1=CC(I)=C(F)C=C1","-","EN300-107765","5343","4-fluoro-3-iodobenzoic acid","-","A55638","25489863","-","-","169.0 - 171.0","?C","170.0","Celsius"
"COC1=CC(I)=C(C=C1)C(O)=O","-","EN300-107766","5344","2-iodo-4-methoxybenzoic acid","-","A55638","25489863","-","-","182.0 - 184.0","?C","183.0","Celsius"
"OC(=O)C1=C(I)C=C(F)C(F)=C1","-","EN300-107767","5345","4,5-difluoro-2-iodobenzoic acid","-","A55638","25489863","-","-","127.0 - 129.0","?C","128.0","Celsius"
"OC(=O)C1=C(I)C(Br)=CC=C1","-","EN300-107770","5347","3-bromo-2-iodobenzoic acid","-","A55638","25489863","-","-","139.0 - 141.0","?C","140.0","Celsius"
"CC1=C(C(O)=O)C(I)=CC=C1","-","EN300-107771","5348","2-iodo-6-methylbenzoic acid","-","A55638","25489863","-","-","116.0 - 118.0","?C","117.0","Celsius"
"OC(=O)C1=CC(=C(F)C(F)=C1)S(Cl)(=O)=O","-","EN300-107773","5350","3-(chlorosulfonyl)-4,5-difluorobenzoic acid","-","A55638","25489863","-","-","154.0 - 156.0","?C","155.0","Celsius"
"OC(=O)C1=CC(=C(Br)C(F)=C1)S(Cl)(=O)=O","-","EN300-107777","5351","4-bromo-3-(chlorosulfonyl)-5-fluorobenzoic acid","-","A55638","25489863","-","-","213.0 - 215.0","?C","214.0","Celsius"
"CCOC1=C(O)C=CC(=C1)C#N","60758-79-4","EN300-10778","5352","3-ethoxy-4-hydroxybenzonitrile","-","A55638","25489863","-","-","75.0 - 77.0","?C","76.0","Celsius"
"CC1=C(C)C(=CC(=C1)S(Cl)(=O)=O)C(O)=O","-","EN300-107780","5353","5-(chlorosulfonyl)-2,3-dimethylbenzoic acid","-","A55638","25489863","-","-","179.0 - 181.0","?C","180.0","Celsius"
"CC1=C(NC(=O)OC(C)(C)C)SC=N1","-","EN300-107782","5354","tert-butyl N-(4-methyl-1,3-thiazol-5-yl)carbamate","-","A55638","25489863","-","-","136.0 - 138.0","?C","137.0","Celsius"
"CC1=C(C)C=C(C=C1)C1=NNC=C1Br","-","EN300-107824","5358","4-bromo-3-(3,4-dimethylphenyl)-1H-pyrazole","-","A55638","25489863","-","-","116.0 - 118.0","?C","117.0","Celsius"
"NCC(O)C1=CC(OCC2=CC=CC=C2)=CC=C1","-","EN300-107828","5360","2-amino-1-[3-(benzyloxy)phenyl]ethan-1-ol","-","A55638","25489863","-","-","107.0 - 109.0","?C","108.0","Celsius"
"COC1=CC(Cl)=C(CC(O)=O)C=C1","-","EN300-107831","5362","2-(2-chloro-4-methoxyphenyl)acetic acid","-","A55638","25489863","-","-","118.0 - 120.0","?C","119.0","Celsius"
"ClC1=CC=C(C=C1)C1=NNC=C1Br","-","EN300-107832","5363","4-bromo-3-(4-chlorophenyl)-1H-pyrazole","-","A55638","25489863","-","-","140.0 - 142.0","?C","141.0","Celsius"
"CC(O)C1=C(Cl)C=C(C=C1)N1CCNC(=O)C1","-","EN300-107833","5364","4-[3-chloro-4-(1-hydroxyethyl)phenyl]piperazin-2-one","-","A55638","25489863","-","-","186.0 - 188.0","?C","187.0","Celsius"
"NS(=O)(=O)C1=CC(NC(=O)CCl)=C(Cl)C=C1","-","EN300-107837","5365","2-chloro-N-(2-chloro-5-sulfamoylphenyl)acetamide","-","A55638","25489863","-","-","172.0 - 174.0","?C","173.0","Celsius"
"ClC1=NN2C=CN=C2C=C1","-","EN300-107839","5367","6-chloroimidazo[1,2-b]pyridazine","-","A55638","25489863","-","-","114.0 - 116.0","?C","115.0","Celsius"
"CC1(CCS(=O)(=O)C1)N1C=C(C=O)C=N1","-","EN300-107841","5368","1-(3-methyl-1,1-dioxo-1$l^{6}-thiolan-3-yl)-1H-pyrazole-4-carbaldehyde","-","A55638","25489863","-","-","84.0 - 86.0","?C","85.0","Celsius"
"CCN(CC)C1=C(N)C=C(C=C1)S(N)(=O)=O","41893-78-1","EN300-10785","5369","3-amino-4-(diethylamino)benzenesulfonamide","-","A55638","25489863","-","-","102.0 - 104.0","?C","103.0","Celsius"
"BrCC1=CC=C(C=C1)C(=O)NC1=CC=CC=C1","-","EN300-10788","5373","4-(bromomethyl)-N-phenylbenzamide","-","A55638","25489863","-","-","179.0 - 181.0","?C","180.0","Celsius"
"OC(=O)CC1=C(Cl)C=C(O)C=C1","-","EN300-107885","5375","2-(2-chloro-4-hydroxyphenyl)acetic acid","-","A55638","25489863","-","-","171.0 - 173.0","?C","172.0","Celsius"
"COCCNC1=C(N)C=C(C=C1)S(C)(=O)=O","-","EN300-107889","5376","4-methanesulfonyl-1-N-(2-methoxyethyl)benzene-1,2-diamine","-","A55638","25489863","-","-","144.0 - 146.0","?C","145.0","Celsius"
"NC1=CC=C(C=C1)C1=NC2=C(S1)C=CC(Br)=C2","-","EN300-107890","5377","4-(5-bromo-1,3-benzothiazol-2-yl)aniline","-","A55638","25489863","-","-","189.0 - 191.0","?C","190.0","Celsius"
"OC(=O)CN1C=C(N=N1)C1CC1","-","EN300-107892","5379","2-(4-cyclopropyl-1H-1,2,3-triazol-1-yl)acetic acid","-","A55638","25489863","-","-","183.0 - 185.0","?C","184.0","Celsius"
"COC1=CC(OC)=C(C=O)C(Br)=C1","-","EN300-107893","5380","2-bromo-4,6-dimethoxybenzaldehyde","-","A55638","25489863","-","-","89.0 - 91.0","?C","90.0","Celsius"
"NC1=C(C=NN1C1=NC=CC=N1)C#N","-","EN300-107894","5381","5-amino-1-(pyrimidin-2-yl)-1H-pyrazole-4-carbonitrile","-","A55638","25489863","-","-","320.0 - 322.0","?C","321.0","Celsius"
"CNS(=O)(=O)C1=CC(N)=C(NCCOC)C=C1","-","EN300-107895","5382","3-amino-4-[(2-methoxyethyl)amino]-N-methylbenzene-1-sulfonamide","-","A55638","25489863","-","-","111.0 - 113.0","?C","112.0","Celsius"
"CN(CCO)CC(O)=O","-","EN300-107899","5384","2-[(2-hydroxyethyl)(methyl)amino]acetic acid","-","A55638","25489863","-","-","136.0 - 138.0","?C","137.0","Celsius"
"CC(=O)NC1=CC=C(NC(=O)CC#N)C=C1","-","EN300-10790","5385","N-[4-(acetylamino)phenyl]-2-cyanoacetamide","-","A55638","25489863","-","-","305.0 - 307.0","?C","306.0","Celsius"
"IC1=CC=C(OCCC2=CC=CC=C2)C=C1","-","EN300-107902","5386","1-iodo-4-(2-phenylethoxy)benzene","-","A55638","25489863","-","-","64.0 - 66.0","?C","65.0","Celsius"
"NC(=S)NC1=C(OC2=CC=CC=C2)C=CC=C1","-","EN300-107904","5387","(2-phenoxyphenyl)thiourea","-","A55638","25489863","-","-","125.0 - 127.0","?C","126.0","Celsius"
"CC(C)CC1CC(=O)NC(=O)C1","-","EN300-107905","5388","4-(2-methylpropyl)piperidine-2,6-dione","-","A55638","25489863","-","-","136.0 - 138.0","?C","137.0","Celsius"
"OC(=O)CC1=C(F)C=C(C=C1)[N+]([O-])=O","-","EN300-107917","5389","2-(2-fluoro-4-nitrophenyl)acetic acid","-","A55638","25489863","-","-","162.0 - 164.0","?C","163.0","Celsius"
"CC1=NN=C2N1C=CC=C2Cl","-","EN300-107918","5390","8-chloro-3-methyl-[1,2,4]triazolo[4,3-a]pyridine","-","A55638","25489863","-","-","163.0 - 165.0","?C","164.0","Celsius"
"NC1=C(N=CN=C1Cl)N1C=CC=N1","-","EN300-107919","5391","4-chloro-6-(1H-pyrazol-1-yl)pyrimidin-5-amine","-","A55638","25489863","-","-","110.0 - 112.0","?C","111.0","Celsius"
"OC(=O)C1=CC(=CC=C1)N1C=CC(=N1)C(F)(F)F","-","EN300-107925","5392","3-[3-(trifluoromethyl)-1H-pyrazol-1-yl]benzoic acid","-","A55638","25489863","-","-","159.0 - 161.0","?C","160.0","Celsius"
"CC1=C(N)C2=C(C=CC=C2)C(Br)=C1","-","EN300-107941","5393","4-bromo-2-methylnaphthalen-1-amine","-","A55638","25489863","-","-","79.0 - 81.0","?C","80.0","Celsius"
"CC1=C(C)C=C(C=C1)N1C(S)=NN=C1C1=CC=NC=C1","-","EN300-10795","5394","4-(3,4-dimethylphenyl)-5-pyridin-4-yl-4H-1,2,4-triazole-3-thiol","-","A55638","25489863","-","-","260.0 - 262.0","?C","261.0","Celsius"
"OC(=O)CCNS(=O)(=O)C1=CC=C(OC(F)(F)F)C=C1","-","EN300-10796","5395","3-({[4-(trifluoromethoxy)phenyl]sulfonyl}amino)propanoic acid","-","A55638","25489863","-","-","150.0 - 152.0","?C","151.0","Celsius"
"FC1=C(C=O)C=CC(=C1)C#N","-","EN300-107978","5397","3-fluoro-4-formylbenzonitrile","-","A55638","25489863","-","-","79.0 - 81.0","?C","80.0","Celsius"
"NS(=O)(=O)C1=CC(C(O)=O)=C(Cl)C=C1","97-04-1","EN300-10798","5398","5-(aminosulfonyl)-2-chlorobenzoic acid","-","A55638","25489863","-","-","219.0 - 221.0","?C","220.0","Celsius"
"NS(=O)(=O)C1=CC(C(O)=O)=C(Br)C=C1","-","EN300-10799","5399","5-(aminosulfonyl)-2-bromobenzoic acid","-","A55638","25489863","-","-","231.0 - 233.0","?C","232.0","Celsius"
"NS(=O)(=O)C1=CC(C(O)=O)=C(F)C=C1","112887-25-9","EN300-10800","5400","5-(aminosulfonyl)-2-fluorobenzoic acid","-","A55638","25489863","-","-","186.0 - 188.0","?C","187.0","Celsius"
"COC(=O)C1=C(F)C=C(N)C=C1","-","EN300-108007","5401","methyl 4-amino-2-fluorobenzoate","-","A55638","25489863","-","-","109.0 - 111.0","?C","110.0","Celsius"
"CC1=C(CS(C)(=O)=O)C=C(S1)C(O)=O","-","EN300-108009","5402","4-(methanesulfonylmethyl)-5-methylthiophene-2-carboxylic acid","-","A55638","25489863","-","-","233.0 - 235.0","?C","234.0","Celsius"
"CC1=C(C)C=C(C=C1)S(=O)(=O)NCCCC(O)=O","-","EN300-10801","5403","4-{[(3,4-dimethylphenyl)sulfonyl]amino}butanoic acid","-","A55638","25489863","-","-","111.0 - 113.0","?C","112.0","Celsius"
"CC1=C(OC2=C1C=C(F)C=C2)S(Cl)(=O)=O","-","EN300-108010","5404","5-fluoro-3-methyl-1-benzofuran-2-sulfonyl chloride","-","A55638","25489863","-","-","81.0 - 83.0","?C","82.0","Celsius"
"OCC1=CC(C=CC(O)=O)=CC=C1","-","EN300-108011","5405","3-[3-(hydroxymethyl)phenyl]prop-2-enoic acid","-","A55638","25489863","-","-","129.0 - 131.0","?C","130.0","Celsius"
"OCCOC1=CC(Br)=CN=C1","-","EN300-108016","5406","2-[(5-bromopyridin-3-yl)oxy]ethan-1-ol","-","A55638","25489863","-","-","51.0 - 53.0","?C","52.0","Celsius"
"CC(N)(C(N)=O)C1=CC=CC=C1","-","EN300-108017","5407","2-amino-2-phenylpropanamide","-","A55638","25489863","-","-","114.0 - 116.0","?C","115.0","Celsius"
"CCN1C(=O)NN=C1C1CCN(CC1)C(=O)OC(C)(C)C","-","EN300-108021","5409","tert-butyl 4-(4-ethyl-5-oxo-4,5-dihydro-1H-1,2,4-triazol-3-yl)piperidine-1-carboxylate","-","A55638","25489863","-","-","219.0 - 221.0","?C","220.0","Celsius"
"OC(=O)C=CC1=C(Cl)C=CC(=C1)C(F)(F)F","-","EN300-10804","5411","(2E)-3-[2-chloro-5-(trifluoromethyl)phenyl]acrylic acid","-","A55638","25489863","-","-","147.0 - 149.0","?C","148.0","Celsius"
"CC1=CC(CCC(O)=O)=C(C)S1","-","EN300-108066","5412","3-(2,5-dimethylthiophen-3-yl)propanoic acid","-","A55638","25489863","-","-","57.0 - 59.0","?C","58.0","Celsius"
"CC(Cl)C1=CN(N=N1)C1=CC=CC=C1","-","EN300-108067","5413","4-(1-chloroethyl)-1-phenyl-1H-1,2,3-triazole","-","A55638","25489863","-","-","69.0 - 71.0","?C","70.0","Celsius"
"CN1C(=NC2=C1C=CC=C2)C#C","-","EN300-108068","5414","2-ethynyl-1-methyl-1H-1,3-benzodiazole","-","A55638","25489863","-","-","82.0 - 84.0","?C","83.0","Celsius"
"CC1=C(SC=N1)C1=NC(CN)=NO1","-","EN300-108070","5415","[5-(4-methyl-1,3-thiazol-5-yl)-1,2,4-oxadiazol-3-yl]methanamine","-","A55638","25489863","-","-","159.0 - 161.0","?C","160.0","Celsius"
"CN(C=O)C1=CC=C(C=C1)C(=O)CCl","-","EN300-108074","5416","N-[4-(2-chloroacetyl)phenyl]-N-methylformamide","-","A55638","25489863","-","-","96.0 - 98.0","?C","97.0","Celsius"