"SMILES","CASRN","EXTERNALID","N","NAME","NAME","ARTICLEID","PUBMEDID","PAGE","TABLE","Melting Point {measured}","UNIT {Melting Point}","Melting Point {measured, converted}","UNIT {Melting Point}"
"CC1=CC(C=O)=C(C)N1C1=CC(=CC=C1)C(F)(F)F","207233-99-6","EN300-08068","2787","2,5-dimethyl-1-[3-(trifluoromethyl)phenyl]-1H-pyrrole-3-carbaldehyde","-","A55638","25489863","-","-","103.0 - 105.0","?C","104.0","Celsius"
"NNC(=O)CNC1=CC=C(F)C=C1","710-31-6","EN300-08070","2788","2-[(4-fluorophenyl)amino]acetohydrazide","-","A55638","25489863","-","-","80.0 - 83.0","?C","81.5","Celsius"
"CC1=CC(Br)=C(NC(=O)CCl)C(Br)=C1","96686-53-2","EN300-08071","2789","2-chloro-N-(2,6-dibromo-4-methylphenyl)acetamide","-","A55638","25489863","-","-","177.0 - 178.0","?C","178.0","Celsius"
"COC1=CC(NC(=O)CCl)=CC(OC)=C1OC","39901-45-6","EN300-08074","2790","2-chloro-N-(3,4,5-trimethoxyphenyl)acetamide","-","A55638","25489863","-","-","104.0 - 106.0","?C","105.0","Celsius"
"ClCC(=O)NC1=CC=C(C=C1)C1=CC=CC=C1","3289-77-8","EN300-08075","2791","N-1,1'-biphenyl-4-yl-2-chloroacetamide","-","A55638","25489863","-","-","121.0 - 123.0","?C","122.0","Celsius"
"ClCC(=O)NC1=CC2=C(NC(=O)N2)C=C1","-","EN300-08076","2792","2-chloro-N-(2-oxo-2,3-dihydro-1H-benzimidazol-5-yl)acetamide","-","A55638","25489863","-","-","230.0 - 232.0","?C","231.0","Celsius"
"CC1=NN(C(N2CCCCC2)=C1C=O)C1=CC=CC=C1","5499-70-7","EN300-08079","2793","3-methyl-1-phenyl-5-piperidin-1-yl-1H-pyrazole-4-carbaldehyde","-","A55638","25489863","-","-","75.0 - 77.0","?C","76.0","Celsius"
"NNC(=O)C1=NNC2=C1CCCC2","90434-92-7","EN300-08081","2794","4,5,6,7-tetrahydro-1H-indazole-3-carbohydrazide","-","A55638","25489863","-","-","176.0 - 178.0","?C","177.0","Celsius"
"O=CC1=CN(CCC#N)N=C1C1=CC=CC=C1","-","EN300-08082","2795","3-(4-formyl-3-phenyl-1H-pyrazol-1-yl)propanenitrile","-","A55638","25489863","-","-","74.0 - 76.0","?C","75.0","Celsius"
"CC1=CC(C)=C(C#N)C(=O)N1N","1562-12-5","EN300-08083","2796","1-amino-4,6-dimethyl-2-oxo-1,2-dihydropyridine-3-carbonitrile","-","A55638","25489863","-","-","164.0 - 166.0","?C","165.0","Celsius"
"OC(=O)C1=CC=C(COC2=CC=C(F)C=C2)O1","-","EN300-08084","2797","5-[(4-fluorophenoxy)methyl]-2-furoic acid","-","A55638","25489863","-","-","165.0 - 167.0","?C","166.0","Celsius"
"BrC1=NNC(=O)NC1=O","4956-05-2","EN300-08087","2799","6-bromo-1,2,4-triazine-3,5(2H,4H)-dione","-","A55638","25489863","-","-","188.0 - 190.0","?C","189.0","Celsius"
"COC1=C(C=CC=C1)N1N=NN=C1S","-","EN300-08089","2800","1-(2-methoxyphenyl)-1H-tetrazole-5-thiol","-","A55638","25489863","-","-","153.0 - 155.0","?C","154.0","Celsius"
"OC(=O)CNC(=O)C1=CC=C(C=C1)C(F)(F)F","-","EN300-08092","2802","{[4-(trifluoromethyl)benzoyl]amino}acetic acid","-","A55638","25489863","-","-","154.0 - 156.0","?C","155.0","Celsius"
"OC(=O)CNC(=O)C1=CC(Br)=CC=C1","57728-60-6","EN300-08094","2803","[(3-bromobenzoyl)amino]acetic acid","-","A55638","25489863","-","-","148.0 - 150.0","?C","149.0","Celsius"
"OC(=O)CNC(=O)C1=CC2=C(C=CC=C2)C=C1","69826-63-7","EN300-08095","2804","(2-naphthoylamino)acetic acid","-","A55638","25489863","-","-","171.0 - 175.0","?C","173.0","Celsius"
"OC(=O)CNC(=O)C1=CC2=C(OCO2)C=C1","27855-25-0","EN300-08096","2805","[(1,3-benzodioxol-5-ylcarbonyl)amino]acetic acid","-","A55638","25489863","-","-","158.0 - 160.0","?C","159.0","Celsius"
"NC(=O)C1=C(NC(=O)CCl)SC=C1","-","EN300-08099","2806","2-[(chloroacetyl)amino]thiophene-3-carboxamide","-","A55638","25489863","-","-","148.0 - 150.0","?C","149.0","Celsius"
"CC1=NC2=C(C3=C(CCC3)S2)C(NN)=N1","-","EN300-08101","2807","4-hydrazino-2-methyl-6,7-dihydro-5H-cyclopenta[4,5]thieno[2,3-d]pyrimidine","-","A55638","25489863","-","-","182.0 - 184.0","?C","183.0","Celsius"
"NNC1=C2C=C(SC2=NC=N1)C1=CC=CC=C1","35970-80-0","EN300-08103","2808","4-hydrazino-6-phenylthieno[2,3-d]pyrimidine","-","A55638","25489863","-","-","263.0 - 265.0","?C","264.0","Celsius"
"CC1=NC2=C(C=C(S2)C2=CC=CC=C2)C(NN)=N1","-","EN300-08104","2809","4-hydrazino-2-methyl-6-phenylthieno[2,3-d]pyrimidine","-","A55638","25489863","-","-","163.0 - 165.0","?C","164.0","Celsius"
"COC1=CC=C(C=C1)N1C(C)=CC(C(=O)CCl)=C1C","-","EN300-08108","2812","2-chloro-1-[1-(4-methoxyphenyl)-2,5-dimethyl-1H-pyrrol-3-yl]ethanone","-","A55638","25489863","-","-","91.0 - 95.0","?C","93.0","Celsius"
"O=C1CSC(=S)N1C1=CN=CC=C1","99419-73-5","EN300-08110","2813","3-pyridin-3-yl-2-thioxo-1,3-thiazolidin-4-one","-","A55638","25489863","-","-","159.0 - 161.0","?C","160.0","Celsius"
"CC(C)(C)C1=NN=C(S)N1N","73396-58-4","EN300-08113","2815","4-amino-5-tert-butyl-4H-1,2,4-triazole-3-thiol","-","A55638","25489863","-","-","185.0 - 189.0","?C","187.0","Celsius"
"OC(=O)CNC(=O)C1=CC=C(C=C1)C(=O)NCC(O)=O","22578-94-5","EN300-08115","2816","[(4-{[(carboxymethyl)amino]carbonyl}benzoyl)amino]acetic acid","-","A55638","25489863","-","-","261.0 - 263.0","?C","262.0","Celsius"
"CC1=CC=C(C=C1)C1=CC=C(O)C=C1","26191-64-0","EN300-08122","2817","4'-methyl-1,1'-biphenyl-4-ol","-","A55638","25489863","-","-","155.0 - 157.0","?C","156.0","Celsius"
"OC(=O)CNC(=O)COC1=CC=CC=C1","14231-45-9","EN300-08125","2820","[(phenoxyacetyl)amino]acetic acid","-","A55638","25489863","-","-","89.0 - 91.0","?C","90.0","Celsius"
"CC1=NC2=NC(S)=NN2C(C)=C1","51646-17-4","EN300-08126","2821","5,7-dimethyl[1,2,4]triazolo[1,5-a]pyrimidine-2-thiol","-","A55638","25489863","-","-","259.0 - 261.0","?C","260.0","Celsius"
"CCOC1=C(OC)C(Br)=CC(C=O)=C1","81805-97-2","EN300-08130","2822","3-bromo-5-ethoxy-4-methoxybenzaldehyde","-","A55638","25489863","-","-","52.0 - 54.0","?C","53.0","Celsius"
"FC1=CC=C(C=C1)C1=NN=C(CCl)O1","-","EN300-08137","2823","2-(chloromethyl)-5-(4-fluorophenyl)-1,3,4-oxadiazole","-","A55638","25489863","-","-","138.0 - 140.0","?C","139.0","Celsius"
"OC(=O)C1=C(NC2=C(F)C=CC=C2)N=CC=C1","-","EN300-08142","2825","2-[(2-fluorophenyl)amino]nicotinic acid","-","A55638","25489863","-","-","215.0 - 217.0","?C","216.0","Celsius"
"CCOC(=O)C1=CC=C(C=C1)C1=CC=C(O1)C=O","19247-87-1","EN300-08143","2826","ethyl 4-(5-formyl-2-furyl)benzoate","-","A55638","25489863","-","-","110.0 - 112.0","?C","111.0","Celsius"
"COC1=CC=C(OCCCC(O)=O)C=C1","55579-99-2","EN300-08145","2827","4-(4-methoxyphenoxy)butanoic acid","-","A55638","25489863","-","-","101.0 - 105.0","?C","103.0","Celsius"
"NC(=O)C1=C(N)SC=C1","14080-51-4","EN300-08147","2829","2-aminothiophene-3-carboxamide","-","A55638","25489863","-","-","160.0 - 162.0","?C","161.0","Celsius"
"COC1=CC(OC)=C(C=C1)C1=CSC(NC(=O)CCl)=N1","-","EN300-08153","2830","2-chloro-N-[4-(2,4-dimethoxyphenyl)-1,3-thiazol-2-yl]acetamide","-","A55638","25489863","-","-","109.0 - 111.0","?C","110.0","Celsius"
"NC1=C2C(=O)NC(=O)C2=CC=C1","2518-24-3","EN300-08155","2831","4-amino-1H-isoindole-1,3(2H)-dione","-","A55638","25489863","-","-","268.0 - 270.0","?C","269.0","Celsius"
"ClCC(=O)NNC(=O)C1=CC(Cl)=CC=C1","63002-49-3","EN300-08165","2833","3-chloro-N'-(chloroacetyl)benzohydrazide","-","A55638","25489863","-","-","155.0 - 157.0","?C","156.0","Celsius"
"FC1=CC=C(C=C1)N(CCC#N)C(=O)CCl","-","EN300-08167","2834","2-chloro-N-(2-cyanoethyl)-N-(4-fluorophenyl)acetamide","-","A55638","25489863","-","-","85.0 - 87.0","?C","86.0","Celsius"
"CC1=CC=C(C=C1)N(CCC#N)C(=O)CCl","-","EN300-08168","2835","2-chloro-N-(2-cyanoethyl)-N-(4-methylphenyl)acetamide","-","A55638","25489863","-","-","56.0 - 58.0","?C","57.0","Celsius"
"CC1=CC(=CC(C)=C1)N(CCC#N)C(=O)CCl","-","EN300-08169","2836","2-chloro-N-(2-cyanoethyl)-N-(3,5-dimethylphenyl)acetamide","-","A55638","25489863","-","-","67.0 - 69.0","?C","68.0","Celsius"
"BrCC(=O)C1=CC=C(C=C1)S(=O)(=O)N1CCCCC1","58722-39-7","EN300-08175","2837","2-bromo-1-[4-(piperidin-1-ylsulfonyl)phenyl]ethanone","-","A55638","25489863","-","-","108.0 - 110.0","?C","109.0","Celsius"
"ClCC(=O)NC(=O)NC12CC3CC(CC(C3)C1)C2","-","EN300-08176","2838","N-[(1-adamantylamino)carbonyl]-2-chloroacetamide","-","A55638","25489863","-","-","169.0 - 171.0","?C","170.0","Celsius"
"NC1=NC2=C(COC3=C2C=CC=C3)S1","31877-68-6","EN300-08177","2839","4H-chromeno[4,3-d][1,3]thiazol-2-amine","-","A55638","25489863","-","-","190.0 - 192.0","?C","191.0","Celsius"
"OC(=O)C1=CC2=C(SCC(=O)N2)C=C1","272437-84-0","EN300-08179","2840","3-oxo-3,4-dihydro-2H-1,4-benzothiazine-6-carboxylic acid","-","A55638","25489863","-","-","251.0 - 253.0","?C","252.0","Celsius"
"COCCN1C(C)=CC(C(=O)CCl)=C1C","-","EN300-08180","2841","2-chloro-1-[1-(2-methoxyethyl)-2,5-dimethyl-1H-pyrrol-3-yl]ethanone","-","A55638","25489863","-","-","87.0 - 91.0","?C","89.0","Celsius"
"CC(=O)C1=CC=C(C=C1)S(=O)(=O)N1CCCCCC1","-","EN300-08181","2842","1-[4-(azepan-1-ylsulfonyl)phenyl]ethanone","-","A55638","25489863","-","-","73.0 - 77.0","?C","75.0","Celsius"
"CCOC(=O)C1=C(NC(N)=S)SC(C)=C1C","-","EN300-08183","2844","ethyl 2-[(aminocarbonothioyl)amino]-4,5-dimethylthiophene-3-carboxylate","-","A55638","25489863","-","-","207.0 - 209.0","?C","208.0","Celsius"
"CC1=C(C)C2=C(S1)N=C(S)NC2=O","38201-64-8","EN300-08185","2845","2-mercapto-5,6-dimethylthieno[2,3-d]pyrimidin-4(3H)-one","-","A55638","25489863","-","-","328.0 - 330.0","?C","329.0","Celsius"
"O=CC1=CC=C(OCC(=O)C2=CC=CC=C2)C=C1","139484-40-5","EN300-08214","2846","4-(2-oxo-2-phenylethoxy)benzaldehyde","-","A55638","25489863","-","-","115.0 - 119.0","?C","117.0","Celsius"
"OC(=O)C1=CC(OCC2=CC=CC=C2)=CC=C1","69026-14-8","EN300-08215","2847","3-(benzyloxy)benzoic acid","-","A55638","25489863","-","-","113.0 - 115.0","?C","114.0","Celsius"
"COC1=C(OCC(=O)C2=CC=CC=C2)C=CC(C=O)=C1","-","EN300-08217","2848","3-methoxy-4-(2-oxo-2-phenylethoxy)benzaldehyde","-","A55638","25489863","-","-","127.0 - 129.0","?C","128.0","Celsius"
"CC1=C(COC2=CC=C(C=C2)C(O)=O)C(C)=NO1","-","EN300-08218","2849","4-[(3,5-dimethylisoxazol-4-yl)methoxy]benzoic acid","-","A55638","25489863","-","-","224.0 - 226.0","?C","225.0","Celsius"
"CC1=C(C)C=C(C=C1)C(=O)COC1=CC=C(C=O)C=C1","-","EN300-08220","2850","4-[2-(3,4-dimethylphenyl)-2-oxoethoxy]benzaldehyde","-","A55638","25489863","-","-","65.0 - 67.0","?C","66.0","Celsius"
"CC1=CC(C(=O)CCl)=C(C)N1C1=CC=C(OC(F)F)C=C1","-","EN300-08221","2851","2-chloro-1-{1-[4-(difluoromethoxy)phenyl]-2,5-dimethyl-1H-pyrrol-3-yl}ethanone","-","A55638","25489863","-","-","83.0 - 87.0","?C","85.0","Celsius"
"CC1=CC(C(=O)CCl)=C(C)N1CC1CCCO1","-","EN300-08223","2852","2-chloro-1-[2,5-dimethyl-1-(tetrahydrofuran-2-ylmethyl)-1H-pyrrol-3-yl]ethanone","-","A55638","25489863","-","-","88.0 - 90.0","?C","89.0","Celsius"
"C1CN2C(N1)=NC1=C2C=CC=C1","24134-26-7","EN300-08224","2853","2,3-dihydro-1H-imidazo[1,2-a]benzimidazole","-","A55638","25489863","-","-","194.0 - 206.0","?C","200.0","Celsius"
"OC(=O)C1=CC(=C(SC2=CC=CC=C2)C=C1)[N+]([O-])=O","37531-36-5","EN300-08227","2854","3-nitro-4-(phenylthio)benzoic acid","-","A55638","25489863","-","-","228.0 - 230.0","?C","229.0","Celsius"
"CC1=CC(C(=O)CCl)=C(C)N1C1=CC=C(Br)C=C1","-","EN300-08229","2855","1-[1-(4-bromophenyl)-2,5-dimethyl-1H-pyrrol-3-yl]-2-chloroethanone","-","A55638","25489863","-","-","82.0 - 84.0","?C","83.0","Celsius"
"OC(=O)CN1NC(=O)C2=C(C=CC=C2)C1=O","2257-64-9","EN300-08230","2856","(1,4-dioxo-3,4-dihydrophthalazin-2(1H)-yl)acetic acid","-","A55638","25489863","-","-","272.0 - 274.0","?C","273.0","Celsius"
"CC1CCN(CC1)S(=O)(=O)C1=CC=C(C=C1)C(C)=O","-","EN300-08246","2857","1-{4-[(4-methylpiperidin-1-yl)sulfonyl]phenyl}ethanone","-","A55638","25489863","-","-","104.0 - 106.0","?C","105.0","Celsius"
"NN1C(S)=NN=C1C1=CC=CO1","80809-38-7","EN300-08249","2859","4-amino-5-(2-furyl)-4H-1,2,4-triazole-3-thiol","-","A55638","25489863","-","-","207.0 - 209.0","?C","208.0","Celsius"
"OC(=O)CCC(=O)N1CCN(CC1)S(=O)(=O)C1=CC=CC=C1","-","EN300-08254","2860","4-oxo-4-[4-(phenylsulfonyl)piperazin-1-yl]butanoic acid","-","A55638","25489863","-","-","155.0 - 157.0","?C","156.0","Celsius"
"CC1=CC(=C(C)C=C1)S(=O)(=O)N1CCN(CC1)C(=O)CCC(O)=O","-","EN300-08256","2861","4-{4-[(2,5-dimethylphenyl)sulfonyl]piperazin-1-yl}-4-oxobutanoic acid","-","A55638","25489863","-","-","143.0 - 145.0","?C","144.0","Celsius"
"CC1=CC=C(C=C1)C1=C2C=CC=CC2=C(Cl)N=N1","76972-35-5","EN300-08257","2862","1-chloro-4-(4-methylphenyl)phthalazine","-","A55638","25489863","-","-","145.0 - 147.0","?C","146.0","Celsius"
"OC(=O)CC1SC2=C(NC1=O)C=CC=C2","6270-74-2","EN300-08260","2864","(3-oxo-3,4-dihydro-2H-1,4-benzothiazin-2-yl)acetic acid","-","A55638","25489863","-","-","188.0 - 190.0","?C","189.0","Celsius"
"CC1=CC(C(=O)CCl)=C(C)N1CCC1=CC=CC=C1","-","EN300-08261","2865","2-chloro-1-[2,5-dimethyl-1-(2-phenylethyl)-1H-pyrrol-3-yl]ethanone","-","A55638","25489863","-","-","80.0 - 82.0","?C","81.0","Celsius"
"COC1=CC2=C(C=C1)C(=CC(S)=N2)C1=CC=CC=C1","-","EN300-08265","2866","7-methoxy-4-phenylquinoline-2-thiol","-","A55638","25489863","-","-","180.0 - 182.0","?C","181.0","Celsius"
"ClCC1=NC2=C(C3=C(CCC3)S2)C(=O)N1","91225-70-6","EN300-08266","2867","2-(chloromethyl)-3,5,6,7-tetrahydro-4H-cyclopenta[4,5]thieno[2,3-d]pyrimidin-4-one","-","A55638","25489863","-","-","230.0 - 238.0","?C","234.0","Celsius"
"OC(=O)CC(Br)C(=O)C1=CC=CS1","53515-21-2","EN300-08268","2869","3-bromo-4-oxo-4-thien-2-ylbutanoic acid","-","A55638","25489863","-","-","125.0 - 127.0","?C","126.0","Celsius"
"O=S(=O)(N1CCNCC1)C1=CC=CS1","-","EN300-08271","2871","1-(thien-2-ylsulfonyl)piperazine","-","A55638","25489863","-","-","98.0 - 100.0","?C","99.0","Celsius"
"FC1=CC=C(C=C1)S(=O)(=O)N1CCNCC1","27106-49-6","EN300-08273","2872","1-[(4-fluorophenyl)sulfonyl]piperazine","-","A55638","25489863","-","-","112.0 - 114.0","?C","113.0","Celsius"
"FC(F)(F)C1=CC(=CC=C1)S(=O)(=O)N1CCNCC1","-","EN300-08274","2873","1-{[3-(trifluoromethyl)phenyl]sulfonyl}piperazine","-","A55638","25489863","-","-","100.0 - 110.0","?C","105.0","Celsius"
"FC(F)(F)C1=C(Cl)C=CC(=C1)S(=O)(=O)N1CCNCC1","-","EN300-08275","2874","1-{[4-chloro-3-(trifluoromethyl)phenyl]sulfonyl}piperazine","-","A55638","25489863","-","-","292.0 - 295.0","?C","294.0","Celsius"
"CC1=C(SC2=C1C(=O)N1CCCCCC1=N2)C(O)=O","-","EN300-08282","2875","3-methyl-4-oxo-4,6,7,8,9,10-hexahydrothieno[2',3':4,5]pyrimido[1,2-a]azepine-2-carboxylic acid","-","A55638","25489863","-","-","253.0 - 255.0","?C","254.0","Celsius"
"COC1=C(C=C(C=C1)C(O)=O)S(Cl)(=O)=O","50803-29-7","EN300-08283","2876","3-(chlorosulfonyl)-4-methoxybenzoic acid","-","A55638","25489863","-","-","153.0 - 155.0","?C","154.0","Celsius"
"ClCC1=NC2=C(C(=CS2)C2=CC=C(Cl)C=C2)C(=O)N1","91225-69-3","EN300-08287","2877","2-(chloromethyl)-5-(4-chlorophenyl)thieno[2,3-d]pyrimidin-4(3H)-one","-","A55638","25489863","-","-","124.0 - 126.0","?C","125.0","Celsius"
"CC1=C(C=CO1)C1=NN=C(S)N1CC=C","522597-61-1","EN300-08301","2878","4-allyl-5-(2-methyl-3-furyl)-4H-1,2,4-triazole-3-thiol","-","A55638","25489863","-","-","293.0 - 295.0","?C","294.0","Celsius"
"SC1=NC2=C(C=CS2)C(=O)N1CC=C","51550-04-0","EN300-08302","2879","3-allyl-2-mercaptothieno[2,3-d]pyrimidin-4(3H)-one","-","A55638","25489863","-","-","212.0 - 214.0","?C","213.0","Celsius"
"CN1C(C)=NN=C1S","38942-50-6","EN300-08303","2880","4,5-Dimethyl-4H-1,2,4-triazole-3-thiol","-","A55638","25489863","-","-","112.0 - 115.0","?C","114.0","Celsius"
"CN1C(S)=NN=C1C1CC1","588687-37-0","EN300-08304","2881","5-cyclopropyl-4-methyl-4H-1,2,4-triazole-3-thiol","-","A55638","25489863","-","-","180.0 - 182.0","?C","181.0","Celsius"
"CN1C(S)=NN=C1COC1=CC=C(Cl)C=C1","424798-45-8","EN300-08306","2882","5-[(4-chlorophenoxy)methyl]-4-methyl-4H-1,2,4-triazole-3-thiol","-","A55638","25489863","-","-","118.0 - 120.0","?C","119.0","Celsius"
"CN1C(S)=NN=C1C1=C(C)OC=C1","725218-31-5","EN300-08307","2883","4-methyl-5-(2-methyl-3-furyl)-4H-1,2,4-triazole-3-thiol","-","A55638","25489863","-","-","118.0 - 120.0","?C","119.0","Celsius"
"OC(=O)C1=C(NC(=O)CC2=CC=CC=C2)C=CC=C1","28565-98-2","EN300-08313","2884","2-[(phenylacetyl)amino]benzoic acid","-","A55638","25489863","-","-","192.0 - 194.0","?C","193.0","Celsius"
"CSCCC(NC(=O)COC1=CC=CC=C1)C(O)=O","123529-85-1","EN300-08314","2885","4-(methylthio)-2-[(phenoxyacetyl)amino]butanoic acid","-","A55638","25489863","-","-","122.0 - 130.0","?C","126.0","Celsius"
"COC1=CC=C(C=C1)S(=O)(=O)NCC(O)=O","13029-74-8","EN300-08317","2886","{[(4-methoxyphenyl)sulfonyl]amino}acetic acid","-","A55638","25489863","-","-","131.0 - 133.0","?C","132.0","Celsius"
"OC(=O)CCNC(=O)C1=CC=C(Cl)C=C1","-","EN300-08318","2887","3-[(4-chlorobenzoyl)amino]propanoic acid","-","A55638","25489863","-","-","167.0 - 169.0","?C","168.0","Celsius"
"SC1=NN=C(COC2=CC=C(Cl)C=C2)N1CC1=CC=CC=C1","-","EN300-08322","2888","4-benzyl-5-[(4-chlorophenoxy)methyl]-4H-1,2,4-triazole-3-thiol","-","A55638","25489863","-","-","211.0 - 213.0","?C","212.0","Celsius"
"CC1=C(C=CO1)C1=NN=C(S)N1CC1=CC=CC=C1","-","EN300-08323","2889","4-benzyl-5-(2-methyl-3-furyl)-4H-1,2,4-triazole-3-thiol","-","A55638","25489863","-","-","134.0 - 136.0","?C","135.0","Celsius"
"SC1=NN=C(N1CC1=CC=CO1)C1=CN=CC=C1","-","EN300-08328","2890","4-(2-furylmethyl)-5-pyridin-3-yl-4H-1,2,4-triazole-3-thiol","-","A55638","25489863","-","-","117.0 - 119.0","?C","118.0","Celsius"
"SC1=NN=C(N1CC1=CC=CO1)C1=CC=C(Cl)C=C1","-","EN300-08329","2891","5-(4-chlorophenyl)-4-(2-furylmethyl)-4H-1,2,4-triazole-3-thiol","-","A55638","25489863","-","-","117.0 - 119.0","?C","118.0","Celsius"
"SC1=NN=C(C2CC2)N1CC1=CC=CO1","-","EN300-08331","2892","5-cyclopropyl-4-(2-furylmethyl)-4H-1,2,4-triazole-3-thiol","-","A55638","25489863","-","-","260.0 - 262.0","?C","261.0","Celsius"
"CC1=C(C=CO1)C1=NN=C(S)N1N","-","EN300-08336","2893","4-amino-5-(2-methyl-3-furyl)-4H-1,2,4-triazole-3-thiol","-","A55638","25489863","-","-","159.0 - 161.0","?C","160.0","Celsius"
"NNC(=O)C1=CC=C(C=C1)S(=O)(=O)N1CCCC1","-","EN300-08342","2894","4-(pyrrolidin-1-ylsulfonyl)benzohydrazide","-","A55638","25489863","-","-","199.0 - 201.0","?C","200.0","Celsius"
"NC1=NC(=CS1)C1=CNC2=C1C=CC=C2","22258-56-6","EN300-08345","2895","4-(1H-indol-3-yl)-1,3-thiazol-2-amine","-","A55638","25489863","-","-","167.0 - 169.0","?C","168.0","Celsius"
"CC(C)C1=CC(OCC(O)=O)=C(C)C=C1","19728-20-2","EN300-08346","2896","(5-isopropyl-2-methylphenoxy)acetic acid","-","A55638","25489863","-","-","153.0 - 155.0","?C","154.0","Celsius"
"CC(Cl)C(=O)NC1=C(Cl)C=CC(=C1)[N+]([O-])=O","-","EN300-08348","2897","2-chloro-N-(2-chloro-5-nitrophenyl)propanamide","-","A55638","25489863","-","-","120.0 - 122.0","?C","121.0","Celsius"
"CC1=CC(=CC=C1)C(=O)NC1=C(C=CC=C1)C(O)=O","-","EN300-08355","2899","2-[(3-methylbenzoyl)amino]benzoic acid","-","A55638","25489863","-","-","182.0 - 186.0","?C","184.0","Celsius"
"CSCCC(NC(=O)C1=C(Br)C=CC=C1)C(O)=O","-","EN300-08356","2900","2-[(2-bromobenzoyl)amino]-4-(methylthio)butanoic acid","-","A55638","25489863","-","-","171.0 - 173.0","?C","172.0","Celsius"
"CSCCC(NC(=O)C1=C(Cl)C=C(Cl)C=C1)C(O)=O","65054-77-5","EN300-08360","2901","2-[(2,4-dichlorobenzoyl)amino]-4-(methylthio)butanoic acid","-","A55638","25489863","-","-","79.0 - 81.0","?C","80.0","Celsius"
"CSCCC(NC(=O)C1=CC(C)=CC=C1)C(O)=O","65054-81-1","EN300-08363","2902","2-[(3-methylbenzoyl)amino]-4-(methylthio)butanoic acid","-","A55638","25489863","-","-","115.0 - 117.0","?C","116.0","Celsius"
"CC(C)C(NC(=O)CC1=CC=CC=C1)C(O)=O","-","EN300-08371","2903","3-methyl-2-[(phenylacetyl)amino]butanoic acid","-","A55638","25489863","-","-","110.0 - 112.0","?C","111.0","Celsius"
"CC(C)C(NC(=O)COC1=CC=CC=C1)C(O)=O","39864-48-7","EN300-08372","2904","3-methyl-2-[(phenoxyacetyl)amino]butanoic acid","-","A55638","25489863","-","-","165.0 - 167.0","?C","166.0","Celsius"
"CC(C)C(NC(=O)C1=C(Cl)C=C(C=C1)[N+]([O-])=O)C(O)=O","-","EN300-08375","2905","2-[(2-chloro-4-nitrobenzoyl)amino]-3-methylbutanoic acid","-","A55638","25489863","-","-","145.0 - 147.0","?C","146.0","Celsius"
"CC(C)C(NS(=O)(=O)C1=C(F)C=CC=C1)C(O)=O","-","EN300-08378","2906","2-{[(2-fluorophenyl)sulfonyl]amino}-3-methylbutanoic acid","-","A55638","25489863","-","-","159.0 - 161.0","?C","160.0","Celsius"
"OC(=O)CNS(=O)(=O)C1=CC(=CC=C1)C(F)(F)F","85845-02-9","EN300-08381","2907","({[3-(trifluoromethyl)phenyl]sulfonyl}amino)acetic acid","-","A55638","25489863","-","-","80.0 - 82.0","?C","81.0","Celsius"