"SMILES","CASRN","EXTERNALID","N","NAME","NAME","ARTICLEID","PUBMEDID","PAGE","TABLE","Melting Point {measured}","UNIT {Melting Point}","Melting Point {measured, converted}","UNIT {Melting Point}"
"OC(=O)C1=CC(=CN1CC1=C(Br)C=CS1)[N+]([O-])=O","-","EN300-114031","6324","1-[(3-bromothiophen-2-yl)methyl]-4-nitro-1H-pyrrole-2-carboxylic acid","-","A55638","25489863","-","-","190.0 - 192.0","?C","191.0","Celsius"
"CC(C)COC1=CC(=CC=C1)C(O)=O","-","EN300-11405","6327","3-isobutoxybenzoic acid","-","A55638","25489863","-","-","85.0 - 89.0","?C","87.0","Celsius"
"CC(C)(C)C1(C)OC(=O)CC(=O)O1","-","EN300-114051","6329","2-tert-butyl-2-methyl-1,3-dioxane-4,6-dione","-","A55638","25489863","-","-","72.0 - 74.0","?C","73.0","Celsius"
"C1CNC2=C(SC1)C=CC=C2","40358-33-6","EN300-11411","6330","2,3,4,5-tetrahydro-1,5-benzothiazepine","-","A55638","25489863","-","-","22.0 - 24.0","?C","23.0","Celsius"
"ClC1=CC=C(CN2C=C(Br)C=N2)C=C1","-","EN300-114113","6331","4-bromo-1-[(4-chlorophenyl)methyl]-1H-pyrazole","-","A55638","25489863","-","-","71.0 - 73.0","?C","72.0","Celsius"
"OC(=O)C1CCN(CC1)C1=CN=CC2=NN=NN12","-","EN300-114119","6333","1-{[1,2,3,4]tetrazolo[1,5-a]pyrazin-5-yl}piperidine-4-carboxylic acid","-","A55638","25489863","-","-","159.0 - 161.0","?C","160.0","Celsius"
"COC(=O)C1=C(Cl)C(N)=CC(Br)=C1","-","EN300-114120","6334","methyl 3-amino-5-bromo-2-chlorobenzoate","-","A55638","25489863","-","-","73.0 - 75.0","?C","74.0","Celsius"
"CC(C)(C)SC1=NC=C(C=C1)C#N","-","EN300-114132","6337","6-(tert-butylsulfanyl)pyridine-3-carbonitrile","-","A55638","25489863","-","-","69.0 - 71.0","?C","70.0","Celsius"
"CCC(=O)N1CCC(C1)C(O)=O","-","EN300-114133","6338","1-propanoylpyrrolidine-3-carboxylic acid","-","A55638","25489863","-","-","118.0 - 120.0","?C","119.0","Celsius"
"ClC1=CC=C(SC2CCNCC2)C=C1","-","EN300-114135","6339","4-[(4-chlorophenyl)sulfanyl]piperidine","-","A55638","25489863","-","-","41.0 - 43.0","?C","42.0","Celsius"
"CS(=O)(=O)CCS(N)(=O)=O","-","EN300-114137","6340","2-methanesulfonylethane-1-sulfonamide","-","A55638","25489863","-","-","149.0 - 151.0","?C","150.0","Celsius"
"COC1=CC=C(CC(O)C(O)=O)C=C1","-","EN300-114147","6341","2-hydroxy-3-(4-methoxyphenyl)propanoic acid","-","A55638","25489863","-","-","84.0 - 86.0","?C","85.0","Celsius"
"CN(C)C1=CC(F)=C(C=C1)C#N","-","EN300-114150","6342","4-(dimethylamino)-2-fluorobenzonitrile","-","A55638","25489863","-","-","56.0 - 58.0","?C","57.0","Celsius"
"NC(=NO)C1CCCCCC1","-","EN300-114151","6343","N'-hydroxycycloheptanecarboximidamide","-","A55638","25489863","-","-","87.0 - 89.0","?C","88.0","Celsius"
"OC(=O)C1=C(NC(=O)C2=C(Br)C=CC=C2)C=CC=C1","18600-62-9","EN300-11416","6347","2-[(2-bromobenzoyl)amino]benzoic acid","-","A55638","25489863","-","-","201.0 - 203.0","?C","202.0","Celsius"
"BrC1=C2CCCC(=O)C2=CC=C1","-","EN300-114190","6349","5-bromo-1,2,3,4-tetrahydronaphthalen-1-one","-","A55638","25489863","-","-","50.0 - 52.0","?C","51.0","Celsius"
"OC(=O)C1=CN(CC2=CC=CC=C2)N=C1C1=CC=CC=C1","-","EN300-11420","6351","1-benzyl-3-phenyl-1H-pyrazole-4-carboxylic acid","-","A55638","25489863","-","-","189.0 - 191.0","?C","190.0","Celsius"
"CC(OC1=C(N)C=CC(F)=C1)C#N","-","EN300-114207","6353","2-(2-amino-5-fluorophenoxy)propanenitrile","-","A55638","25489863","-","-","89.0 - 91.0","?C","90.0","Celsius"
"COC1=C(OC)C=C(C=C1)C1=NN(C=C1C(O)=O)C1=CC=CC=C1","-","EN300-11421","6356","3-(3,4-dimethoxyphenyl)-1-phenyl-1H-pyrazole-4-carboxylic acid","-","A55638","25489863","-","-","188.0 - 190.0","?C","189.0","Celsius"
"CC1=NC(=CC(Cl)=N1)C1=NC=CC=C1","-","EN300-114211","6357","4-chloro-2-methyl-6-(pyridin-2-yl)pyrimidine","-","A55638","25489863","-","-","75.0 - 77.0","?C","76.0","Celsius"
"NC1=NC=CC(CSCCO)=C1","-","EN300-114212","6358","2-{[(2-aminopyridin-4-yl)methyl]sulfanyl}ethan-1-ol","-","A55638","25489863","-","-","90.0 - 92.0","?C","91.0","Celsius"
"O=S(=O)(NC1CC1)C1CCN(CC2=CC=CC=C2)C1","-","EN300-114213","6359","1-benzyl-N-cyclopropylpyrrolidine-3-sulfonamide","-","A55638","25489863","-","-","94.0 - 96.0","?C","95.0","Celsius"
"COC(=O)C1C2CCC(N2)C1C(=O)OC","-","EN300-114220","6360","2,3-dimethyl 7-azabicyclo[2.2.1]heptane-2,3-dicarboxylate","-","A55638","25489863","-","-","77.0 - 79.0","?C","78.0","Celsius"
"NC(=O)C1=CC=C(O1)C(O)=O","-","EN300-114223","6361","5-carbamoylfuran-2-carboxylic acid","-","A55638","25489863","-","-","286.0 - 288.0","?C","287.0","Celsius"
"CC(C)C1=CC(=NN1C1=CC=NC=C1)C(O)=O","-","EN300-114227","6362","5-(propan-2-yl)-1-(pyridin-4-yl)-1H-pyrazole-3-carboxylic acid","-","A55638","25489863","-","-","225.0 - 227.0","?C","226.0","Celsius"
"CC1=NC=C(NC(=O)OC(C)(C)C)S1","-","EN300-114228","6363","tert-butyl N-(2-methyl-1,3-thiazol-5-yl)carbamate","-","A55638","25489863","-","-","147.0 - 149.0","?C","148.0","Celsius"
"OC(=O)CC1(CC(=O)C2=CC=C(Cl)S2)CCCCC1","-","EN300-114229","6364","2-{1-[2-(5-chlorothiophen-2-yl)-2-oxoethyl]cyclohexyl}acetic acid","-","A55638","25489863","-","-","102.0 - 104.0","?C","103.0","Celsius"
"COC1=C(Br)C=C(S1)C=O","-","EN300-114233","6367","4-bromo-5-methoxythiophene-2-carbaldehyde","-","A55638","25489863","-","-","115.0 - 117.0","?C","116.0","Celsius"
"ClC1=CC2=C(CCCC2=O)C=C1","-","EN300-114239","6368","7-chloro-1,2,3,4-tetrahydronaphthalen-1-one","-","A55638","25489863","-","-","74.0 - 76.0","?C","75.0","Celsius"
"CN1CCC(CC1)N1N=CC=C1N","3524-30-9","EN300-11425","6370","1-(1-methylpiperidin-4-yl)-1H-pyrazol-5-amine","-","A55638","25489863","-","-","98.0 - 100.0","?C","99.0","Celsius"
"NC1=CC=NN1CC1=CN=CC=C1","852990-17-1","EN300-11426","6371","1-(pyridin-3-ylmethyl)-1H-pyrazol-5-amine","-","A55638","25489863","-","-","86.0 - 88.0","?C","87.0","Celsius"
"CC1=C(C=CC(O)=N1)C(O)=O","-","EN300-114264","6372","6-hydroxy-2-methylpyridine-3-carboxylic acid","-","A55638","25489863","-","-","329.0 - 331.0","?C","330.0","Celsius"
"CC1=NN=C2N1N=C(Cl)C=C2N","-","EN300-114267","6373","6-chloro-3-methyl-[1,2,4]triazolo[4,3-b]pyridazin-8-amine","-","A55638","25489863","-","-","227.0 - 229.0","?C","228.0","Celsius"
"NC1=NN(CC(F)(F)F)C=C1","-","EN300-114272","6374","1-(2,2,2-trifluoroethyl)-1H-pyrazol-3-amine","-","A55638","25489863","-","-","39.0 - 41.0","?C","40.0","Celsius"
"N#CC1=CC2=C(OCC2)C=C1","-","EN300-114273","6375","2,3-dihydro-1-benzofuran-5-carbonitrile","-","A55638","25489863","-","-","64.0 - 66.0","?C","65.0","Celsius"
"CC1=CN2C(=CN=C2C=C1)C#N","-","EN300-114274","6376","6-methylimidazo[1,2-a]pyridine-3-carbonitrile","-","A55638","25489863","-","-","126.0 - 128.0","?C","127.0","Celsius"
"COC1=C(C=CC(Cl)=C1)S(N)(=O)=O","-","EN300-114279","6379","4-chloro-2-methoxybenzene-1-sulfonamide","-","A55638","25489863","-","-","169.0 - 171.0","?C","170.0","Celsius"
"NC1=CC2=C(C=C1)N(N=C2)C(F)F","-","EN300-114280","6380","1-(difluoromethyl)-1H-indazol-5-amine","-","A55638","25489863","-","-","77.0 - 79.0","?C","78.0","Celsius"
"CC1=NC=C(C)C(N)=C1","-","EN300-114290","6382","2,5-dimethylpyridin-4-amine","-","A55638","25489863","-","-","145.0 - 147.0","?C","146.0","Celsius"
"NC1=NC(=CS1)C(=O)NC1=CC=CC=C1","-","EN300-114293","6383","2-amino-N-phenyl-1,3-thiazole-4-carboxamide","-","A55638","25489863","-","-","169.0 - 171.0","?C","170.0","Celsius"
"ClC1=C(C=C(C2=CC=CC=C2)C(=N1)C1=CC=CC=C1)C#N","-","EN300-114298","6384","2-chloro-5,6-diphenylpyridine-3-carbonitrile","-","A55638","25489863","-","-","129.0 - 131.0","?C","130.0","Celsius"
"OC(=O)C1=C(N=C2SC=CN12)C1CC1","-","EN300-114299","6385","6-cyclopropylimidazo[2,1-b][1,3]thiazole-5-carboxylic acid","-","A55638","25489863","-","-","163.0 - 165.0","?C","164.0","Celsius"
"OC(=O)C1=C(S)C=C(Br)C=C1","-","EN300-114300","6386","4-bromo-2-sulfanylbenzoic acid","-","A55638","25489863","-","-","203.0 - 205.0","?C","204.0","Celsius"
"CC1=C(OC2=C1C=C(F)C=C2F)C(O)=O","-","EN300-114301","6387","5,7-difluoro-3-methyl-1-benzofuran-2-carboxylic acid","-","A55638","25489863","-","-","339.0 - 341.0","?C","340.0","Celsius"
"CC1=C(C=CC=C1C(O)=O)S(N)(=O)=O","-","EN300-114303","6388","2-methyl-3-sulfamoylbenzoic acid","-","A55638","25489863","-","-","218.0 - 220.0","?C","219.0","Celsius"
"CC1=CN(N=C1N)C1=C(F)C=CC=N1","-","EN300-114309","6389","1-(3-fluoropyridin-2-yl)-4-methyl-1H-pyrazol-3-amine","-","A55638","25489863","-","-","131.0 - 133.0","?C","132.0","Celsius"
"COC1=C(C=CC=C1)C(\N)=N\O","771-28-8","EN300-11432","6391","N'-hydroxy-2-methoxybenzenecarboximidamide","-","A55638","25489863","-","-","105.0 - 107.0","?C","106.0","Celsius"
"CC(C)C1=C2OCCC(=O)C2=C(C)C=C1","-","EN300-114331","6393","5-methyl-8-(propan-2-yl)-3,4-dihydro-2H-1-benzopyran-4-one","-","A55638","25489863","-","-","36.0 - 38.0","?C","37.0","Celsius"
"CC(C)C1=C(OCCC(O)=O)C=C(C)C=C1","-","EN300-114334","6394","3-[5-methyl-2-(propan-2-yl)phenoxy]propanoic acid","-","A55638","25489863","-","-","93.0 - 95.0","?C","94.0","Celsius"
"CC(C)C1=C(OCCC(O)=O)C=CC=C1","-","EN300-114335","6395","3-[2-(propan-2-yl)phenoxy]propanoic acid","-","A55638","25489863","-","-","84.0 - 86.0","?C","85.0","Celsius"
"CS(=O)(=O)CCC1=CC=C(N)C=C1","-","EN300-114346","6397","4-(2-methanesulfonylethyl)aniline","-","A55638","25489863","-","-","93.0 - 95.0","?C","94.0","Celsius"
"CC(N1CCSCC1)C(O)=O","-","EN300-114347","6398","2-(thiomorpholin-4-yl)propanoic acid","-","A55638","25489863","-","-","199.0 - 201.0","?C","200.0","Celsius"
"O=CNC1=CC2=C(OCO2)C=C1","-","EN300-114348","6399","N-(2H-1,3-benzodioxol-5-yl)formamide","-","A55638","25489863","-","-","96.0 - 98.0","?C","97.0","Celsius"
"CC(C)C1=C(O)C=CC(Br)=C1","-","EN300-114349","6400","4-bromo-2-(propan-2-yl)phenol","-","A55638","25489863","-","-","48.0 - 50.0","?C","49.0","Celsius"
"OC(=O)CC1=CSC(=N1)C1=CC(Cl)=CC=C1","17969-26-5","EN300-11435","6401","[2-(3-chlorophenyl)-1,3-thiazol-4-yl]acetic acid","-","A55638","25489863","-","-","104.0 - 109.0","?C","106.0","Celsius"
"ClC1=CN=C(OC2CCCNC2)C=C1","-","EN300-114351","6402","5-chloro-2-(piperidin-3-yloxy)pyridine","-","A55638","25489863","-","-","64.0 - 66.0","?C","65.0","Celsius"
"NC1=C(Cl)C=NN1C1CCN(CC2=CC=CC=C2)C1","-","EN300-114352","6403","1-(1-benzylpyrrolidin-3-yl)-4-chloro-1H-pyrazol-5-amine","-","A55638","25489863","-","-","106.0 - 108.0","?C","107.0","Celsius"
"NC1=CC=C(C=C1)C1=NC(=NN1)C1=CC=CC=C1","-","EN300-114353","6404","4-(3-phenyl-1H-1,2,4-triazol-5-yl)aniline","-","A55638","25489863","-","-","244.0 - 246.0","?C","245.0","Celsius"
"BrC1=NC2=CC=NN2C=C1","-","EN300-114365","6406","5-bromopyrazolo[1,5-a]pyrimidine","-","A55638","25489863","-","-","131.0 - 133.0","?C","132.0","Celsius"
"FC(F)(F)CNC1=CC=NC=C1","-","EN300-114369","6408","N-(2,2,2-trifluoroethyl)pyridin-4-amine","-","A55638","25489863","-","-","157.0 - 159.0","?C","158.0","Celsius"
"OC(=O)C1=CC(=CN=C1)N1CCOCC1","-","EN300-114373","6409","5-(morpholin-4-yl)pyridine-3-carboxylic acid","-","A55638","25489863","-","-","258.0 - 260.0","?C","259.0","Celsius"
"FC(F)OC1=CC(=CC=C1)C1=NN=C(Cl)C=C1","-","EN300-114379","6411","3-chloro-6-[3-(difluoromethoxy)phenyl]pyridazine","-","A55638","25489863","-","-","86.0 - 88.0","?C","87.0","Celsius"
"FC(F)(F)C1=CC(=CC=C1)C1=NN=C(Cl)C=C1","-","EN300-114380","6413","3-chloro-6-[3-(trifluoromethyl)phenyl]pyridazine","-","A55638","25489863","-","-","133.0 - 135.0","?C","134.0","Celsius"
"IC1=CC=C(OCC2=CC3=C(C=C2)N=CC=C3)C=C1","-","EN300-114386","6414","6-(4-iodophenoxymethyl)quinoline","-","A55638","25489863","-","-","161.0 - 163.0","?C","162.0","Celsius"
"OC(=O)CC1=CSC(=N1)C1=CC(F)=CC=C1","-","EN300-11439","6415","[2-(3-fluorophenyl)-1,3-thiazol-4-yl]acetic acid","-","A55638","25489863","-","-","124.0 - 126.0","?C","125.0","Celsius"
"[O-][N+](=O)C1=CC(=C(C=C1)S(Cl)(=O)=O)C(F)(F)F","-","EN300-114399","6417","4-nitro-2-(trifluoromethyl)benzene-1-sulfonyl chloride","-","A55638","25489863","-","-","78.0 - 80.0","?C","79.0","Celsius"
"CCC1=CC(CC(O)=O)=CC=C1","-","EN300-114401","6418","2-(3-ethylphenyl)acetic acid","-","A55638","25489863","-","-","58.0 - 60.0","?C","59.0","Celsius"
"CN1C=NC2=C1C=CC(=C2)C#N","-","EN300-114403","6419","1-methyl-1H-1,3-benzodiazole-5-carbonitrile","-","A55638","25489863","-","-","139.0 - 141.0","?C","140.0","Celsius"
"CC1=C(F)C=CC(=C1)C(=O)C=O","-","EN300-114405","6420","2-(4-fluoro-3-methylphenyl)-2-oxoacetaldehyde","-","A55638","25489863","-","-","76.0 - 78.0","?C","77.0","Celsius"
"NC1=NN(C=N1)C1=CC=C(C=C1)C#N","-","EN300-114407","6421","4-(3-amino-1H-1,2,4-triazol-1-yl)benzonitrile","-","A55638","25489863","-","-","238.0 - 240.0","?C","239.0","Celsius"
"OC(=O)CC1=CC(=O)NC(=O)N1","4628-39-1","EN300-11441","6422","(2,6-dioxo-1,2,3,6-tetrahydropyrimidin-4-yl)acetic acid","-","A55638","25489863","-","-","324.0 - 326.0","?C","325.0","Celsius"
"FC1=CC=CC(F)=C1CS(Cl)(=O)=O","-","EN300-114410","6423","(2,6-difluorophenyl)methanesulfonyl chloride","-","A55638","25489863","-","-","73.0 - 75.0","?C","74.0","Celsius"
"CN1C=CC(=C1)S(=O)(=O)NCC1(N)CCCCC1","-","EN300-114411","6424","N-[(1-aminocyclohexyl)methyl]-1-methyl-1H-pyrrole-3-sulfonamide","-","A55638","25489863","-","-","94.0 - 96.0","?C","95.0","Celsius"
"OC(=O)CC1=CSC(=N1)C1=CC=C(F)C=C1","17969-24-3","EN300-11442","6425","[2-(4-fluorophenyl)-1,3-thiazol-4-yl]acetic acid","-","A55638","25489863","-","-","129.0 - 131.0","?C","130.0","Celsius"
"NC1=NN=C(CO)S1","-","EN300-114425","6426","(5-amino-1,3,4-thiadiazol-2-yl)methanol","-","A55638","25489863","-","-","169.0 - 171.0","?C","170.0","Celsius"
"OC(=O)C1=CN=C(S1)C1=CC2=C(OCC2)C=C1","-","EN300-114426","6427","2-(2,3-dihydro-1-benzofuran-5-yl)-1,3-thiazole-5-carboxylic acid","-","A55638","25489863","-","-","215.0 - 217.0","?C","216.0","Celsius"
"CN1N=CC2=C(NN=C2)C1=O","-","EN300-114429","6429","6-methyl-1H,6H,7H-pyrazolo[3,4-d]pyridazin-7-one","-","A55638","25489863","-","-","246.0 - 248.0","?C","247.0","Celsius"
"CN1CCN(CC1)S(=O)(=O)C1=CC=C(C=C1)C(=O)NN","-","EN300-11443","6430","4-[(4-methylpiperazin-1-yl)sulfonyl]benzohydrazide","-","A55638","25489863","-","-","170.0 - 172.0","?C","171.0","Celsius"
"CN(C)C(=O)C1=CC(=C(Cl)C=C1)S(N)(=O)=O","-","EN300-114435","6431","4-chloro-N,N-dimethyl-3-sulfamoylbenzamide","-","A55638","25489863","-","-","130.0 - 132.0","?C","131.0","Celsius"
"NS(=O)(=O)C1=CC(=CC=C1)C1=NN=CO1","-","EN300-114436","6432","3-(1,3,4-oxadiazol-2-yl)benzene-1-sulfonamide","-","A55638","25489863","-","-","184.0 - 186.0","?C","185.0","Celsius"
"CN(C)C(=O)C1=CC(=C(Cl)C=C1)S(Cl)(=O)=O","-","EN300-114437","6433","2-chloro-5-(dimethylcarbamoyl)benzene-1-sulfonyl chloride","-","A55638","25489863","-","-","106.0 - 108.0","?C","107.0","Celsius"
"CC1=C(N)C=NN1C1=C(C)C=CC(C)=C1","-","EN300-114438","6434","1-(2,5-dimethylphenyl)-5-methyl-1H-pyrazol-4-amine","-","A55638","25489863","-","-","62.0 - 64.0","?C","63.0","Celsius"
"CC1=C(CC(O)=O)C=CC(Cl)=N1","-","EN300-114442","6435","2-(6-chloro-2-methylpyridin-3-yl)acetic acid","-","A55638","25489863","-","-","134.0 - 136.0","?C","135.0","Celsius"
"CC(=O)NC1CNC2=C(C1)C=CC=C2","-","EN300-114447","6439","N-(1,2,3,4-tetrahydroquinolin-3-yl)acetamide","-","A55638","25489863","-","-","124.0 - 126.0","?C","125.0","Celsius"
"ClCC(=O)NC(=O)NC1CCS(=O)(=O)C1","-","EN300-11446","6441","2-chloro-N-{[(1,1-dioxidotetrahydrothien-3-yl)amino]carbonyl}acetamide","-","A55638","25489863","-","-","173.0 - 175.0","?C","174.0","Celsius"
"OC(=O)CC1=CSC(=N1)C1=CC=C(Cl)C=C1","17969-20-9","EN300-11448","6442","[2-(4-Chlorophenyl)-1,3-thiazol-4-yl]acetic acid","-","A55638","25489863","-","-","255.0 - 257.0","?C","256.0","Celsius"
"OC1=CC(OC2=NC=NC=C2)=CC=C1","-","EN300-114515","6447","3-(pyrimidin-4-yloxy)phenol","-","A55638","25489863","-","-","102.0 - 104.0","?C","103.0","Celsius"
"CCC(=CC(O)=O)C1=CC=C(OC)C=C1","-","EN300-114516","6448","3-(4-methoxyphenyl)pent-2-enoic acid","-","A55638","25489863","-","-","130.0 - 132.0","?C","131.0","Celsius"
"OC(=O)C1CCN2C=CN=C2C1","-","EN300-114518","6449","5H,6H,7H,8H-imidazo[1,2-a]pyridine-7-carboxylic acid","-","A55638","25489863","-","-","231.0 - 233.0","?C","232.0","Celsius"
"NC(CNS(=O)(=O)C1=CC=C(F)C=C1)=NO","-","EN300-114522","6451","2-(4-fluorobenzenesulfonamido)-N'-hydroxyethanimidamide","-","A55638","25489863","-","-","148.0 - 150.0","?C","149.0","Celsius"
"CN(C)CCC1=CC=C(C=C1)C(O)=O","-","EN300-114523","6452","4-[2-(dimethylamino)ethyl]benzoic acid","-","A55638","25489863","-","-","163.0 - 165.0","?C","164.0","Celsius"
"CC1=NNC(C(O)=O)=C1O","-","EN300-114526","6453","4-hydroxy-3-methyl-1H-pyrazole-5-carboxylic acid","-","A55638","25489863","-","-","184.0 - 186.0","?C","185.0","Celsius"
"CC1=NC2=C(CCCC2)C(N)=C1","-","EN300-114528","6454","2-methyl-5,6,7,8-tetrahydroquinolin-4-amine","-","A55638","25489863","-","-","121.0 - 123.0","?C","122.0","Celsius"
"CCCCCCCCCCCC(=O)C1=CC=C(O)C=C1","-","EN300-114546","6456","1-(4-hydroxyphenyl)dodecan-1-one","-","A55638","25489863","-","-","71.0 - 73.0","?C","72.0","Celsius"
"CN1N=CC2=C1C=C(C=C2)C#N","-","EN300-114547","6457","1-methyl-1H-indazole-6-carbonitrile","-","A55638","25489863","-","-","104.0 - 106.0","?C","105.0","Celsius"
"COC1=C(F)C=C(C=C1)C1=NNC(=O)C2=C1C=CC=C2","-","EN300-114548","6458","4-(3-fluoro-4-methoxyphenyl)-1,2-dihydrophthalazin-1-one","-","A55638","25489863","-","-","269.0 - 271.0","?C","270.0","Celsius"
"NS(=O)(=O)C1=NC=C(C=C1)C(F)(F)F","-","EN300-114549","6459","5-(trifluoromethyl)pyridine-2-sulfonamide","-","A55638","25489863","-","-","174.0 - 176.0","?C","175.0","Celsius"
"CCN(CC)S(=O)(=O)C1=CC(C(O)=O)=C(C=C1)N1CCOCC1","-","EN300-11455","6460","5-[(diethylamino)sulfonyl]-2-morpholin-4-ylbenzoic acid","-","A55638","25489863","-","-","149.0 - 151.0","?C","150.0","Celsius"
"COC1=C(F)C=C(C=C1)C(=O)C1=C(C=CC=C1)C(O)=O","-","EN300-114555","6461","2-(3-fluoro-4-methoxybenzoyl)benzoic acid","-","A55638","25489863","-","-","147.0 - 149.0","?C","148.0","Celsius"
"OC(=O)C1=C(NC(=O)C2=CC=C(Cl)C=C2)C=CC=C1","34425-87-1","EN300-11456","6463","2-[(4-chlorobenzoyl)amino]benzoic acid","-","A55638","25489863","-","-","208.0 - 210.0","?C","209.0","Celsius"
"OC(=O)C1=C(SC(F)F)C=CC=C1","79676-56-5","EN300-11458","6470","2-[(difluoromethyl)thio]benzoic acid","-","A55638","25489863","-","-","114.0 - 116.0","?C","115.0","Celsius"
"COC1=C(C=CC=C1)C1=NOC(CCl)=N1","110704-43-3","EN300-11459","6472","5-(chloromethyl)-3-(2-methoxyphenyl)-1,2,4-oxadiazole","-","A55638","25489863","-","-","61.0 - 63.0","?C","62.0","Celsius"
"NC(=O)C1=C(I)C(F)=CC=C1","-","EN300-114616","6475","3-fluoro-2-iodobenzamide","-","A55638","25489863","-","-","189.0 - 191.0","?C","190.0","Celsius"
"CCC(C)(CNC(=O)OC(C)(C)C)C(O)=O","-","EN300-114619","6476","2-({[(tert-butoxy)carbonyl]amino}methyl)-2-methylbutanoic acid","-","A55638","25489863","-","-","113.0 - 115.0","?C","114.0","Celsius"
"NS(=O)(=O)C1=CC=C(CCNS(=O)(=O)C2=CC(=CC=C2)C(O)=O)C=C1","-","EN300-11462","6477","3-[({2-[4-(aminosulfonyl)phenyl]ethyl}amino)sulfonyl]benzoic acid","-","A55638","25489863","-","-","226.0 - 228.0","?C","227.0","Celsius"
"ClC1=CC=C(NC2=CC=C(C=C2)C#N)C=C1","-","EN300-114621","6478","4-[(4-chlorophenyl)amino]benzonitrile","-","A55638","25489863","-","-","139.0 - 141.0","?C","140.0","Celsius"
"CC1(C)CCC2=C(C1)C=C(C(O)=O)C(=O)N2","-","EN300-114622","6479","6,6-dimethyl-2-oxo-1,2,5,6,7,8-hexahydroquinoline-3-carboxylic acid","-","A55638","25489863","-","-","242.0 - 244.0","?C","243.0","Celsius"
"CC1=CC(C)=C(C=C1)C(N)CN1C=CN=C1","-","EN300-114624","6480","1-(2,4-dimethylphenyl)-2-(1H-imidazol-1-yl)ethan-1-amine","-","A55638","25489863","-","-","79.0 - 81.0","?C","80.0","Celsius"
"N\C(=N/O)C1=CC=CS1","53370-51-7","EN300-11463","6481","N'-hydroxythiophene-2-carboximidamide","-","A55638","25489863","-","-","81.0 - 83.0","?C","82.0","Celsius"
"COC1=NC(Cl)=C(S1)C=O","-","EN300-114635","6482","4-chloro-2-methoxy-1,3-thiazole-5-carbaldehyde","-","A55638","25489863","-","-","43.0 - 45.0","?C","44.0","Celsius"
"CC(NC(=O)OC(C)(C)C)C(=O)CC1=CC=CC=C1","-","EN300-114646","6490","tert-butyl N-(3-oxo-4-phenylbutan-2-yl)carbamate","-","A55638","25489863","-","-","59.0 - 61.0","?C","60.0","Celsius"
"COC1=CC2=C(C=C1)N=C(C)N=C2Cl","-","EN300-114654","6491","4-chloro-6-methoxy-2-methylquinazoline","-","A55638","25489863","-","-","119.0 - 121.0","?C","120.0","Celsius"