"SMILES","CASRN","EXTERNALID","N","NAME","NAME","ARTICLEID","PUBMEDID","PAGE","TABLE","Melting Point {measured}","UNIT {Melting Point}","Melting Point {measured, converted}","UNIT {Melting Point}"
"OC(=O)CNS(=O)(=O)C1=C(F)C=CC=C1","-","EN300-08382","2908","{[(2-fluorophenyl)sulfonyl]amino}acetic acid","-","A55638","25489863","-","-","170.0 - 172.0","?C","171.0","Celsius"
"OC(=O)C1=C(SCC(=O)C2=CC=C(C=C2)C2=CC=CC=C2)C=CC=C1","-","EN300-08393","2909","2-{[2-(1,1'-biphenyl-4-yl)-2-oxoethyl]thio}benzoic acid","-","A55638","25489863","-","-","189.0 - 191.0","?C","190.0","Celsius"
"CN(CC1=CC=CC=C1)C(=O)C1=C(C=CC=C1)C(O)=O","-","EN300-08395","2910","2-{[benzyl(methyl)amino]carbonyl}benzoic acid","-","A55638","25489863","-","-","153.0 - 155.0","?C","154.0","Celsius"
"CN(C1CCCCC1)C(=O)C1=C(C=CC=C1)C(O)=O","-","EN300-08396","2911","2-{[cyclohexyl(methyl)amino]carbonyl}benzoic acid","-","A55638","25489863","-","-","144.0 - 146.0","?C","145.0","Celsius"
"CC(=O)C1=CC=C(C=C1)S(=O)(=O)NCC1=CC=C(F)C=C1","-","EN300-08401","2912","4-acetyl-N-(4-fluorobenzyl)benzenesulfonamide","-","A55638","25489863","-","-","149.0 - 151.0","?C","150.0","Celsius"
"CC(Cl)C(=O)NC1=CC(C)=CC=C1","-","EN300-08403","2913","2-chloro-N-(3-methylphenyl)propanamide","-","A55638","25489863","-","-","128.0 - 130.0","?C","129.0","Celsius"
"OC(=O)CNC(=O)C1=C(Br)C=CC=C1","81568-83-4","EN300-08405","2914","[(2-bromobenzoyl)amino]acetic acid","-","A55638","25489863","-","-","138.0 - 140.0","?C","139.0","Celsius"
"OC(=O)CCNC(=O)C1=CC=CO1","5652-37-9","EN300-08407","2915","3-(2-furoylamino)propanoic acid","-","A55638","25489863","-","-","135.0 - 139.0","?C","137.0","Celsius"
"CC(C)C(NC(=O)C1=CC=C(Br)C=C1)C(O)=O","-","EN300-08408","2916","2-[(4-bromobenzoyl)amino]-3-methylbutanoic acid","-","A55638","25489863","-","-","189.0 - 191.0","?C","190.0","Celsius"
"OC(=O)CCNS(=O)(=O)C1=CC=C(Br)C=C1","116035-58-6","EN300-08410","2917","3-{[(4-bromophenyl)sulfonyl]amino}propanoic acid","-","A55638","25489863","-","-","161.0 - 163.0","?C","162.0","Celsius"
"OC(=O)CCNC(=O)C1=CC=C(Br)C=C1","-","EN300-08411","2918","3-[(4-bromobenzoyl)amino]propanoic acid","-","A55638","25489863","-","-","142.0 - 144.0","?C","143.0","Celsius"
"OC(=O)CCNS(=O)(=O)C1=C(C=CC=C1)C(F)(F)F","-","EN300-08412","2919","3-({[2-(trifluoromethyl)phenyl]sulfonyl}amino)propanoic acid","-","A55638","25489863","-","-","142.0 - 144.0","?C","143.0","Celsius"
"CC(NC(=O)C1=CC=C(Br)C=C1)C(O)=O","-","EN300-08413","2920","2-[(4-bromobenzoyl)amino]propanoic acid","-","A55638","25489863","-","-","138.0 - 140.0","?C","139.0","Celsius"
"CC(Cl)C(=O)NC12CC3CC(CC(C3)C1)C2","-","EN300-08418","2921","N-1-adamantyl-2-chloropropanamide","-","A55638","25489863","-","-","103.0 - 105.0","?C","104.0","Celsius"
"CC(Cl)C(=O)NC1=CC=C(OCC2=CC=CC=C2)C=C1","-","EN300-08419","2922","N-[4-(benzyloxy)phenyl]-2-chloropropanamide","-","A55638","25489863","-","-","141.0 - 145.0","?C","143.0","Celsius"
"CC(Cl)C(=O)NC1=CC=C(C=C1)C(C)(C)C","-","EN300-08421","2923","N-(4-tert-butylphenyl)-2-chloropropanamide","-","A55638","25489863","-","-","143.0 - 145.0","?C","144.0","Celsius"
"CC(Cl)C(=O)N(CCC#N)C1=CC=CC=C1","-","EN300-08423","2924","2-chloro-N-(2-cyanoethyl)-N-phenylpropanamide","-","A55638","25489863","-","-","74.0 - 76.0","?C","75.0","Celsius"
"CC(Cl)C(=O)NC1=CC=C(C=C1)S(=O)(=O)N1CCCCC1","-","EN300-08432","2926","2-chloro-N-[4-(piperidin-1-ylsulfonyl)phenyl]propanamide","-","A55638","25489863","-","-","130.0 - 135.0","?C","132.0","Celsius"
"CC(Cl)C(=O)NC1=CC(=C(Cl)C=C1)C(F)(F)F","-","EN300-08433","2927","2-chloro-N-[4-chloro-3-(trifluoromethyl)phenyl]propanamide","-","A55638","25489863","-","-","130.0 - 135.0","?C","132.0","Celsius"
"CC(Cl)C(=O)N1CCC2=C1C=CC=C2","-","EN300-08435","2928","1-(2-chloropropanoyl)indoline","-","A55638","25489863","-","-","106.0 - 108.0","?C","107.0","Celsius"
"CC(Cl)C(=O)NC1CC1","-","EN300-08438","2929","2-chloro-N-cyclopropylpropanamide","-","A55638","25489863","-","-","67.0 - 71.0","?C","69.0","Celsius"
"CC(Cl)C(=O)NC1=CC(=C(C)C=C1)S(=O)(=O)N1CCOCC1","-","EN300-08439","2930","2-chloro-N-[4-methyl-3-(morpholin-4-ylsulfonyl)phenyl]propanamide","-","A55638","25489863","-","-","151.0 - 153.0","?C","152.0","Celsius"
"CC(Cl)C(=O)NC(C1=CC=CC=C1)C1=CC=CC=C1","94500-97-7","EN300-08442","2931","N-benzhydryl-2-chloropropanamide","-","A55638","25489863","-","-","130.0 - 139.0","?C","134.0","Celsius"
"CC(Cl)C(=O)NCC1CCCCC1","-","EN300-08443","2932","2-chloro-N-(cyclohexylmethyl)propanamide","-","A55638","25489863","-","-","83.0 - 85.0","?C","84.0","Celsius"
"CC(Cl)C(=O)NC1=C(F)C(F)=C(F)C=C1","-","EN300-08445","2933","2-chloro-N-(2,3,4-trifluorophenyl)propanamide","-","A55638","25489863","-","-","136.0 - 139.0","?C","138.0","Celsius"
"CC(Cl)C(=O)NC(C)C1=CC=CC=C1","40023-41-4","EN300-08446","2934","2-chloro-N-(1-phenylethyl)propanamide","-","A55638","25489863","-","-","89.0 - 91.0","?C","90.0","Celsius"
"CC(Cl)C(=O)NC1=CC=C(C=C1)C(F)(F)F","-","EN300-08447","2935","2-chloro-N-[4-(trifluoromethyl)phenyl]propanamide","-","A55638","25489863","-","-","130.0 - 132.0","?C","131.0","Celsius"
"CC(Cl)C(=O)NC1=CC(=C(F)C=C1)[N+]([O-])=O","-","EN300-08448","2936","2-chloro-N-(4-fluoro-3-nitrophenyl)propanamide","-","A55638","25489863","-","-","96.0 - 98.0","?C","97.0","Celsius"
"CC(Cl)C(=O)NC1=CC=C(Cl)C=C1","-","EN300-08449","2937","2-chloro-N-(4-chlorophenyl)propanamide","-","A55638","25489863","-","-","100.0 - 102.0","?C","101.0","Celsius"
"CSC1=C(NC(=O)C(C)Cl)C=CC=C1","-","EN300-08452","2938","2-chloro-N-[2-(methylthio)phenyl]propanamide","-","A55638","25489863","-","-","59.0 - 61.0","?C","60.0","Celsius"
"CC(Cl)C(=O)NC1CCCCC1","-","EN300-08454","2939","2-chloro-N-cyclohexylpropanamide","-","A55638","25489863","-","-","98.0 - 100.0","?C","99.0","Celsius"
"CC(Cl)C(=O)NC1=C(C=C(C=C1)[N+]([O-])=O)C(F)(F)F","-","EN300-08455","2940","2-chloro-N-[4-nitro-2-(trifluoromethyl)phenyl]propanamide","-","A55638","25489863","-","-","183.0 - 185.0","?C","184.0","Celsius"
"CC(Cl)C(=O)NC1=CC=C(C=C1)[N+]([O-])=O","-","EN300-08458","2941","2-chloro-N-(4-nitrophenyl)propanamide","-","A55638","25489863","-","-","138.0 - 140.0","?C","139.0","Celsius"
"CC(Cl)C(=O)C1=C(N)N(C)C(=O)N(C)C1=O","-","EN300-08461","2942","6-amino-5-(2-chloropropanoyl)-1,3-dimethylpyrimidine-2,4(1H,3H)-dione","-","A55638","25489863","-","-","140.0 - 142.0","?C","141.0","Celsius"
"COC1=C(NC(=O)C(C)Cl)C=CC(=C1)[N+]([O-])=O","-","EN300-08462","2943","2-chloro-N-(2-methoxy-4-nitrophenyl)propanamide","-","A55638","25489863","-","-","85.0 - 87.0","?C","86.0","Celsius"
"CC(Cl)C(=O)N1N=C(CC1C1=CC=CO1)C1=CC=C(Cl)C=C1","-","EN300-08467","2944","3-(4-chlorophenyl)-1-(2-chloropropanoyl)-5-(2-furyl)-4,5-dihydro-1H-pyrazole","-","A55638","25489863","-","-","141.0 - 143.0","?C","142.0","Celsius"
"CC(Cl)C(=O)NC1=C(C=CC=C1)[N+]([O-])=O","-","EN300-08469","2945","2-chloro-N-(2-nitrophenyl)propanamide","-","A55638","25489863","-","-","71.0 - 73.0","?C","72.0","Celsius"
"CCOC(=O)C1=C(C)NC(C(=O)C(C)Cl)=C1C","-","EN300-08472","2946","ethyl 5-(2-chloropropanoyl)-2,4-dimethyl-1H-pyrrole-3-carboxylate","-","A55638","25489863","-","-","148.0 - 150.0","?C","149.0","Celsius"
"CC(Cl)C(=O)NC1=NC=C(Cl)C=C1","-","EN300-08473","2947","2-chloro-N-(5-chloropyridin-2-yl)propanamide","-","A55638","25489863","-","-","88.0 - 90.0","?C","89.0","Celsius"
"CC(Cl)C(=O)NC1=NC=CC=N1","-","EN300-08477","2948","2-chloro-N-pyrimidin-2-ylpropanamide","-","A55638","25489863","-","-","148.0 - 150.0","?C","149.0","Celsius"
"FC1=CC=C(C=C1)C1=CSC2=C1C(S)=NC=N2","-","EN300-08485","2950","5-(4-fluorophenyl)thieno[2,3-d]pyrimidine-4-thiol","-","A55638","25489863","-","-","244.0 - 246.0","?C","245.0","Celsius"
"SC1=NC2=C(C=CC=C2)C(=O)N1CCCN1CCOCC1","-","EN300-08486","2951","2-mercapto-3-(3-morpholin-4-ylpropyl)quinazolin-4(3H)-one","-","A55638","25489863","-","-","175.0 - 177.0","?C","176.0","Celsius"
"CC(Cl)C(=O)C1=C(C)N(C(C)=C1)C1=CC=C(OC(F)F)C=C1","-","EN300-08487","2952","2-chloro-1-{1-[4-(difluoromethoxy)phenyl]-2,5-dimethyl-1H-pyrrol-3-yl}propan-1-one","-","A55638","25489863","-","-","92.0 - 96.0","?C","94.0","Celsius"
"COC1=C(C=CC=C1)C1=NN=C(S)N1C","-","EN300-08492","2953","5-(2-methoxyphenyl)-4-methyl-4H-1,2,4-triazole-3-thiol","-","A55638","25489863","-","-","177.0 - 179.0","?C","178.0","Celsius"
"CCN1C(S)=NN=C1C1=C(OC)C=CC=C1","-","EN300-08493","2954","4-ethyl-5-(2-methoxyphenyl)-4H-1,2,4-triazole-3-thiol","-","A55638","25489863","-","-","171.0 - 173.0","?C","172.0","Celsius"
"CCN1C(S)=NN=C1C1=CC=C(OC)C=C1","-","EN300-08500","2955","4-ethyl-5-(4-methoxyphenyl)-4H-1,2,4-triazole-3-thiol","-","A55638","25489863","-","-","178.0 - 180.0","?C","179.0","Celsius"
"CCN1C(S)=NN=C1C1=CC=C(C=C1)C(C)(C)C","174573-98-9","EN300-08503","2956","5-(4-tert-butylphenyl)-4-ethyl-4H-1,2,4-triazole-3-thiol","-","A55638","25489863","-","-","130.0 - 132.0","?C","131.0","Celsius"
"CCOC1=CC=C(C=C1)C(=O)CBr","51012-63-6","EN300-08507","2957","2-bromo-1-(4-ethoxyphenyl)ethanone","-","A55638","25489863","-","-","57.0 - 59.0","?C","58.0","Celsius"
"CC(=O)C1=CC=C(OCC(=O)N2CCOCC2)C=C1","29942-00-5","EN300-08511","2959","1-[4-(2-morpholin-4-yl-2-oxoethoxy)phenyl]ethanone","-","A55638","25489863","-","-","55.0 - 59.0","?C","57.0","Celsius"
"CC(=O)C1=CC=C(OCC(=O)NC2=CC=CC=C2)C=C1","17172-76-8","EN300-08513","2960","2-(4-acetylphenoxy)-N-phenylacetamide","-","A55638","25489863","-","-","94.0 - 96.0","?C","95.0","Celsius"
"CC(C)C1=CC=C(C=C1)S(=O)(=O)N1CCNCC1","-","EN300-08514","2961","1-[(4-isopropylphenyl)sulfonyl]piperazine","-","A55638","25489863","-","-","125.0 - 127.0","?C","126.0","Celsius"
"OC(=O)CN1C(=O)NC2(CCCC2)C1=O","714-72-7","EN300-08517","2962","(2,4-dioxo-1,3-diazaspiro[4.4]non-3-yl)acetic acid","-","A55638","25489863","-","-","165.0 - 167.0","?C","166.0","Celsius"
"NNC(=O)C1=CSC(=N1)N1CCOCC1","-","EN300-08520","2963","2-morpholin-4-yl-1,3-thiazole-4-carbohydrazide","-","A55638","25489863","-","-","168.0 - 170.0","?C","169.0","Celsius"
"CC(C)CCN1C(C)=CC(C=C(C#N)C(O)=O)=C1C","-","EN300-08521","2964","(2E)-2-cyano-3-[2,5-dimethyl-1-(3-methylbutyl)-1H-pyrrol-3-yl]acrylic acid","-","A55638","25489863","-","-","229.0 - 231.0","?C","230.0","Celsius"
"CC1=CC=C(C=C1)C1=CC(=NC(N)=C1)C1=CC=CC=C1","-","EN300-08530","2965","4-(4-methylphenyl)-6-phenylpyridin-2-amine","-","A55638","25489863","-","-","110.0 - 112.0","?C","111.0","Celsius"
"CC1=NN(C(Cl)=C1C=O)C1=CC=C(C)C=C1","350997-70-5","EN300-08531","2966","5-chloro-3-methyl-1-(4-methylphenyl)-1H-pyrazole-4-carbaldehyde","-","A55638","25489863","-","-","135.0 - 137.0","?C","136.0","Celsius"
"CNCCCC1=NNC(N)=C1C#N","-","EN300-08532","2967","5-amino-3-[3-(methylamino)propyl]-1H-pyrazole-4-carbonitrile","-","A55638","25489863","-","-","179.0 - 181.0","?C","180.0","Celsius"
"CCOC1=CC=C(NC(N)=S)C=C1","880-29-5","EN300-08539","2968","N-(4-ethoxyphenyl)thiourea","-","A55638","25489863","-","-","164.0 - 166.0","?C","165.0","Celsius"
"COC1=CC=C(C=C1)C(CN)C1=CNC2=C1C=CC=C2","-","EN300-08545","2969","2-(1H-indol-3-yl)-2-(4-methoxyphenyl)ethanamine","-","A55638","25489863","-","-","127.0 - 129.0","?C","128.0","Celsius"
"ClC1=C(NS(=O)(=O)C2=CC=CC=C2)N=C2C=CC=CC2=N1","-","EN300-08548","2970","N-(3-chloroquinoxalin-2-yl)benzenesulfonamide","-","A55638","25489863","-","-","172.0 - 174.0","?C","173.0","Celsius"
"ClC1=NC2=C(C=CC=C2)N1CC(=O)C1=CC=CC=C1","23085-45-2","EN300-08549","2971","2-(2-chloro-1H-benzimidazol-1-yl)-1-phenylethanone","-","A55638","25489863","-","-","168.0 - 170.0","?C","169.0","Celsius"
"CC1=C(C)C=C(C=C1)C(=O)C1=C(C=CC=C1)C(O)=O","2159-42-4","EN300-08550","2972","2-(3,4-dimethylbenzoyl)benzoic acid","-","A55638","25489863","-","-","166.0 - 168.0","?C","167.0","Celsius"
"CCN(CC)C(=O)COC1=CC=C(C=C1)C(C)=O","-","EN300-08551","2973","2-(4-acetylphenoxy)-N,N-diethylacetamide","-","A55638","25489863","-","-","61.0 - 63.0","?C","62.0","Celsius"
"CN1CCCNC2=C1N=C1C=CC=CC1=N2","-","EN300-08559","2974","1-methyl-2,3,4,5-tetrahydro-1H-[1,4]diazepino[2,3-b]quinoxaline","-","A55638","25489863","-","-","146.0 - 148.0","?C","147.0","Celsius"
"CC1=CC(C)=C(SC2=C(N)C=C(Cl)C=C2)C=C1","-","EN300-08561","2975","5-chloro-2-[(2,4-dimethylphenyl)thio]aniline","-","A55638","25489863","-","-","86.0 - 88.0","?C","87.0","Celsius"
"NS(=O)(=O)C1=CC(=CC=C1)N1C=NN=N1","-","EN300-08564","2976","3-(1H-tetrazol-1-yl)benzenesulfonamide","-","A55638","25489863","-","-","181.0 - 183.0","?C","182.0","Celsius"
"CC(OC1=CC=C(C=C1)C#N)C(=O)NN","-","EN300-08568","2978","2-(4-cyanophenoxy)propanohydrazide","-","A55638","25489863","-","-","129.0 - 131.0","?C","130.0","Celsius"
"CC1=C(C)C=C(C=C1)S(=O)(=O)N1CCC(CC1)C(O)=O","-","EN300-08570","2979","1-[(3,4-dimethylphenyl)sulfonyl]piperidine-4-carboxylic acid","-","A55638","25489863","-","-","190.0 - 192.0","?C","191.0","Celsius"
"CN(C)S(=O)(=O)C1=CC(CCl)=CC=C1","-","EN300-08581","2982","3-(chloromethyl)-N,N-dimethylbenzenesulfonamide","-","A55638","25489863","-","-","45.0 - 47.0","?C","46.0","Celsius"
"OC(=O)C1=C(Cl)C=C2N3CCCCCC3=NS(=O)(=O)C2=C1","-","EN300-08582","2983","2-chloro-8,9,10,11-tetrahydro-7H-azepino[2,1-c][1,2,4]benzothiadiazine-3-carboxylic acid 5,5-dioxide","-","A55638","25489863","-","-","251.0 - 253.0","?C","252.0","Celsius"
"CCN1C(CCC(O)=O)=NC2=C1C=CC(=C2)S(=O)(=O)N(C)C","-","EN300-08583","2984","3-{5-[(dimethylamino)sulfonyl]-1-ethyl-1H-benzimidazol-2-yl}propanoic acid","-","A55638","25489863","-","-","186.0 - 188.0","?C","187.0","Celsius"
"NC1=CC(=C(Cl)C=C1)S(=O)(=O)N1CCCCC1","-","EN300-08585","2985","4-chloro-3-(piperidin-1-ylsulfonyl)aniline","-","A55638","25489863","-","-","92.0 - 96.0","?C","94.0","Celsius"
"CC(C)(C)NS(=O)(=O)C1=C(Cl)C=CC(=C1)C(O)=O","59815-50-8","EN300-08593","2987","3-[(tert-butylamino)sulfonyl]-4-chlorobenzoic acid","-","A55638","25489863","-","-","212.0 - 214.0","?C","213.0","Celsius"
"CNS(=O)(=O)C1=C(Cl)C=CC(=C1)C(O)=O","1429-44-3","EN300-08594","2988","4-chloro-3-[(methylamino)sulfonyl]benzoic acid","-","A55638","25489863","-","-","226.0 - 228.0","?C","227.0","Celsius"
"CCC1=C(NC2=NC(CCl)=NC(N)=N2)C=CC=C1","-","EN300-08603","2989","6-(chloromethyl)-N-(2-ethylphenyl)-1,3,5-triazine-2,4-diamine","-","A55638","25489863","-","-","146.0 - 149.0","?C","148.0","Celsius"
"NC1=C(NC2=CC=C(F)C=C2)C=CC(=C1)[N+]([O-])=O","-","EN300-08613","2990","N-(2-amino-4-nitrophenyl)-N-(4-fluorophenyl)amine","-","A55638","25489863","-","-","162.0 - 164.0","?C","163.0","Celsius"
"COC(=O)C1=C(C)NC(C(O)=O)=C1C","50296-60-1","EN300-08614","2991","4-(methoxycarbonyl)-3,5-dimethyl-1H-pyrrole-2-carboxylic acid","-","A55638","25489863","-","-","206.0 - 208.0","?C","207.0","Celsius"
"CC1=C(C)C(=CC=C1)N1CC(CC1=O)C(O)=O","56617-46-0","EN300-08618","2992","1-(2,3-dimethylphenyl)-5-oxopyrrolidine-3-carboxylic acid","-","A55638","25489863","-","-","211.0 - 213.0","?C","212.0","Celsius"
"CCOC1=C(OCC)C=C(C=C1)C(C)=O","1137-71-9","EN300-08620","2993","1-(3,4-diethoxyphenyl)ethanone","-","A55638","25489863","-","-","49.0 - 51.0","?C","50.0","Celsius"
"OC(=O)C1CN(CCC2=CC=CC=C2)C(=O)C1","30380-70-2","EN300-08621","2994","5-oxo-1-(2-phenylethyl)pyrrolidine-3-carboxylic acid","-","A55638","25489863","-","-","188.0 - 190.0","?C","189.0","Celsius"
"CC1=NN(CC2=C(Cl)C=C(Cl)C=C2)C(Cl)=C1C(O)=O","-","EN300-08628","2995","5-chloro-1-(2,4-dichlorobenzyl)-3-methyl-1H-pyrazole-4-carboxylic acid","-","A55638","25489863","-","-","227.0 - 229.0","?C","228.0","Celsius"
"CC1=NN(CC2=C(Cl)C=CC=C2Cl)C(Cl)=C1C(O)=O","-","EN300-08629","2996","5-chloro-1-(2,6-dichlorobenzyl)-3-methyl-1H-pyrazole-4-carboxylic acid","-","A55638","25489863","-","-","187.0 - 189.0","?C","188.0","Celsius"
"COC1=CC=C(C=C1)C(=O)NC1=C(C=CC=C1)C(O)=O","34425-86-0","EN300-08632","2997","2-[(4-methoxybenzoyl)amino]benzoic acid","-","A55638","25489863","-","-","184.0 - 186.0","?C","185.0","Celsius"
"CSCCC(NS(=O)(=O)C1=CC2=C(C=CC=C2)C=C1)C(O)=O","-","EN300-08637","2998","4-(methylthio)-2-[(2-naphthylsulfonyl)amino]butanoic acid","-","A55638","25489863","-","-","341.0 - 343.0","?C","342.0","Celsius"
"OC(=O)CSC1=NC2=C(O1)C=CC=C2","58089-32-0","EN300-08639","2999","(1,3-benzoxazol-2-ylthio)acetic acid","-","A55638","25489863","-","-","158.0 - 160.0","?C","159.0","Celsius"
"OC(=O)C1CCN(CC1)C(=O)NC1=CC=CC=C1","-","EN300-08640","3000","1-(anilinocarbonyl)piperidine-4-carboxylic acid","-","A55638","25489863","-","-","178.0 - 183.0","?C","180.0","Celsius"
"COCCCN1C=C(C=C(C#N)C1=O)C(=O)C1=C(O)C=CC(F)=C1","-","EN300-08642","3001","5-(5-fluoro-2-hydroxybenzoyl)-1-(3-methoxypropyl)-2-oxo-1,2-dihydropyridine-3-carbonitrile","-","A55638","25489863","-","-","126.0 - 128.0","?C","127.0","Celsius"
"CC1=C(N=C(N)S1)C1=CC(Cl)=CC=C1","206555-32-0","EN300-08646","3002","4-(3-chlorophenyl)-5-methyl-1,3-thiazol-2-amine","-","A55638","25489863","-","-","90.0 - 94.0","?C","92.0","Celsius"
"CC1=C(N=C(N)S1)C1=CC(F)=C(F)C=C1","-","EN300-08648","3003","4-(3,4-difluorophenyl)-5-methyl-1,3-thiazol-2-amine","-","A55638","25489863","-","-","135.0 - 137.0","?C","136.0","Celsius"
"CC1=C(N=C(N)S1)C1=C(C)C=CC(C)=C1","438220-19-0","EN300-08653","3005","4-(2,5-dimethylphenyl)-5-methyl-1,3-thiazol-2-amine","-","A55638","25489863","-","-","92.0 - 94.0","?C","93.0","Celsius"
"CC1=C(N=C(N)S1)C1=CC=C(F)C=C1","2928-00-9","EN300-08654","3006","4-(4-fluorophenyl)-5-methyl-1,3-thiazol-2-amine","-","A55638","25489863","-","-","122.0 - 124.0","?C","123.0","Celsius"
"CC1=C(N=C(N)S1)C1=CC=C(Cl)C=C1","82632-77-7","EN300-08655","3007","4-(4-chlorophenyl)-5-methyl-1,3-thiazol-2-amine","-","A55638","25489863","-","-","146.0 - 148.0","?C","147.0","Celsius"
"CCC1=CC=C(C=C1)C1=C(C)SC(N)=N1","438218-98-5","EN300-08658","3008","4-(4-ethylphenyl)-5-methyl-1,3-thiazol-2-amine","-","A55638","25489863","-","-","96.0 - 98.0","?C","97.0","Celsius"
"CC1=C(N=C(N)S1)C1=CC=C(C)C=C1","16942-66-8","EN300-08659","3009","5-methyl-4-(4-methylphenyl)-1,3-thiazol-2-amine","-","A55638","25489863","-","-","173.0 - 175.0","?C","174.0","Celsius"
"CC1=C(N=C(N)S1)C1=CC=C(Br)C=C1","65705-44-4","EN300-08661","3010","4-(4-bromophenyl)-5-methyl-1,3-thiazol-2-amine","-","A55638","25489863","-","-","147.0 - 149.0","?C","148.0","Celsius"
"ClCC(=O)NC1(CCCCC1)C#N","78734-78-8","EN300-08663","3011","2-chloro-N-(1-cyanocyclohexyl)acetamide","-","A55638","25489863","-","-","130.0 - 132.0","?C","131.0","Celsius"
"CC(Cl)C(=O)NC1(CCCCC1)C#N","-","EN300-08664","3012","2-chloro-N-(1-cyanocyclohexyl)propanamide","-","A55638","25489863","-","-","100.0 - 102.0","?C","101.0","Celsius"
"NC1(CCCCC1)C#N","5496-10-6","EN300-08665","3013","1-Aminocyclohexanecarbonitrile","-","A55638","25489863","-","-","25.0 - 27.0","?C","26.0","Celsius"
"CCCN1C(=O)NC(=O)C(NCCOC)=C1N","-","EN300-08673","3015","6-amino-5-[(2-methoxyethyl)amino]-1-propylpyrimidine-2,4(1H,3H)-dione","-","A55638","25489863","-","-","193.0 - 195.0","?C","194.0","Celsius"
"OC(=O)CC1=CC=C(NS(=O)(=O)C2=CC(=CC=C2)C(F)(F)F)C=C1","-","EN300-08675","3016","[4-({[3-(trifluoromethyl)phenyl]sulfonyl}amino)phenyl]acetic acid","-","A55638","25489863","-","-","122.0 - 124.0","?C","123.0","Celsius"
"OC(=O)CCNS(=O)(=O)C1=CC=CS1","-","EN300-08679","3017","3-[(thien-2-ylsulfonyl)amino]propanoic acid","-","A55638","25489863","-","-","143.0 - 145.0","?C","144.0","Celsius"
"COC1=CC(=CC=C1)N1C(C)=NN=C1SCC(O)=O","-","EN300-08680","3018","{[4-(3-methoxyphenyl)-5-methyl-4H-1,2,4-triazol-3-yl]thio}acetic acid","-","A55638","25489863","-","-","130.0 - 132.0","?C","131.0","Celsius"
"OC(=O)CSC1=NN=C(N1C1=CC=CC=C1)C1=C(F)C=CC=C1","-","EN300-08682","3019","{[5-(2-fluorophenyl)-4-phenyl-4H-1,2,4-triazol-3-yl]thio}acetic acid","-","A55638","25489863","-","-","210.0 - 212.0","?C","211.0","Celsius"
"CC(OC1=CC=C(F)C=C1)C(=O)NN","590356-83-5","EN300-08691","3021","2-(4-fluorophenoxy)propanohydrazide","-","A55638","25489863","-","-","164.0 - 167.0","?C","166.0","Celsius"
"COC1=C(NC(=O)CC2NC3=C(NC2=O)C=CC=C3)C=CC=C1","-","EN300-08692","3022","N-(2-methoxyphenyl)-2-(3-oxo-1,2,3,4-tetrahydroquinoxalin-2-yl)acetamide","-","A55638","25489863","-","-","172.0 - 174.0","?C","173.0","Celsius"