"SMILES","CASRN","EXTERNALID","N","NAME","NAME","ARTICLEID","PUBMEDID","PAGE","TABLE","Melting Point {measured}","UNIT {Melting Point}","Melting Point {measured, converted}","UNIT {Melting Point}"
"CC1=NN(CC(F)(F)F)C=C1C(O)=O","-","EN300-105560","4812","3-methyl-1-(2,2,2-trifluoroethyl)-1H-pyrazole-4-carboxylic acid","-","A55638","25489863","-","-","119.0 - 121.0","?C","120.0","Celsius"
"CC1=NN=C(Br)S1","-","EN300-105562","4813","2-bromo-5-methyl-1,3,4-thiadiazole","-","A55638","25489863","-","-","106.0 - 108.0","?C","107.0","Celsius"
"COC(=O)C1=C(F)C=C(CBr)C=C1","-","EN300-105585","4814","methyl 4-(bromomethyl)-2-fluorobenzoate","-","A55638","25489863","-","-","74.0 - 76.0","?C","75.0","Celsius"
"CC1=NN(C2=C1C=C(Br)C=N2)C1=CC(Cl)=CC=C1","-","EN300-105586","4815","5-bromo-1-(3-chlorophenyl)-3-methyl-1H-pyrazolo[3,4-b]pyridine","-","A55638","25489863","-","-","114.0 - 116.0","?C","115.0","Celsius"
"CC1=NC2=C(O1)C=CC(Br)=N2","-","EN300-105587","4816","5-bromo-2-methyl-[1,3]oxazolo[4,5-b]pyridine","-","A55638","25489863","-","-","76.0 - 78.0","?C","77.0","Celsius"
"CC1=CC=C(C=C1)S(=O)(=O)OC1=C2C=C(Br)C=C(F)C2=NC=N1","-","EN300-105588","4817","6-bromo-8-fluoroquinazolin-4-yl 4-methylbenzene-1-sulfonate","-","A55638","25489863","-","-","204.0 - 206.0","?C","205.0","Celsius"
"COCCCOC1=C(C=CC(C)=C1)C#N","-","EN300-105589","4818","2-(3-methoxypropoxy)-4-methylbenzonitrile","-","A55638","25489863","-","-","67.0 - 69.0","?C","68.0","Celsius"
"OC(=O)C1=C(Br)C=CC(=C1)S(=O)(=O)N1CCCC1","-","EN300-10559","4819","2-bromo-5-(pyrrolidin-1-ylsulfonyl)benzoic acid","-","A55638","25489863","-","-","216.0 - 218.0","?C","217.0","Celsius"
"OC(CNCC1=CC=CC=C1)C1=CSC=C1","-","EN300-105590","4820","2-(benzylamino)-1-(thiophen-3-yl)ethan-1-ol","-","A55638","25489863","-","-","78.0 - 80.0","?C","79.0","Celsius"
"CC(C)C(=O)NC1=C(C=C2C=CC=CC2=C1)C(O)=O","-","EN300-105592","4821","3-(2-methylpropanamido)naphthalene-2-carboxylic acid","-","A55638","25489863","-","-","203.0 - 205.0","?C","204.0","Celsius"
"CC1=CC(OC2CCCC2)=C(C=C1)C#N","-","EN300-105593","4822","2-(cyclopentyloxy)-4-methylbenzonitrile","-","A55638","25489863","-","-","66.0 - 68.0","?C","67.0","Celsius"
"COC(=O)C1=C(N)OC(=N1)C1=CC=CC=C1","-","EN300-105594","4823","methyl 5-amino-2-phenyl-1,3-oxazole-4-carboxylate","-","A55638","25489863","-","-","193.0 - 195.0","?C","194.0","Celsius"
"CC1=C(C=C(C=C1)S(=O)(=O)N1CCCC1)C(O)=O","-","EN300-10560","4824","2-methyl-5-(pyrrolidin-1-ylsulfonyl)benzoic acid","-","A55638","25489863","-","-","178.0 - 180.0","?C","179.0","Celsius"
"CCN(CC)S(=O)(=O)C1=CC(C(O)=O)=C(C)C=C1","-","EN300-10561","4825","5-[(diethylamino)sulfonyl]-2-methylbenzoic acid","-","A55638","25489863","-","-","140.0 - 142.0","?C","141.0","Celsius"
"NC1=CC2=C(CCS2(=O)=O)C=C1","-","EN300-105618","4826","6-amino-2,3-dihydro-1$l^{6}-benzothiophene-1,1-dione","-","A55638","25489863","-","-","197.0 - 199.0","?C","198.0","Celsius"
"COCCNS(=O)(=O)C1=C(OC)C=CC(=C1)C(O)=O","-","EN300-10562","4827","4-methoxy-3-{[(2-methoxyethyl)amino]sulfonyl}benzoic acid","-","A55638","25489863","-","-","183.0 - 185.0","?C","184.0","Celsius"
"CC1CCCCN1S(=O)(=O)C1=CC(C(O)=O)=C(C)C=C1","-","EN300-10563","4828","2-methyl-5-[(2-methylpiperidin-1-yl)sulfonyl]benzoic acid","-","A55638","25489863","-","-","149.0 - 151.0","?C","150.0","Celsius"
"CNC1=CC(C)=C(C=C1)[N+]([O-])=O","-","EN300-105639","4829","N,3-dimethyl-4-nitroaniline","-","A55638","25489863","-","-","90.0 - 92.0","?C","91.0","Celsius"
"CC(C)NS(=O)(=O)C1=CC(C(O)=O)=C(Cl)C=C1","74138-28-6","EN300-10564","4830","2-chloro-5-[(isopropylamino)sulfonyl]benzoic acid","-","A55638","25489863","-","-","147.0 - 149.0","?C","148.0","Celsius"
"CC(=O)OC1=C(C=CC(C)=C1)C(O)=O","-","EN300-105641","4831","2-(acetyloxy)-4-methylbenzoic acid","-","A55638","25489863","-","-","139.0 - 141.0","?C","140.0","Celsius"
"[O-][N+](=O)C1=C(C=CN=C1Cl)C#N","-","EN300-105648","4832","2-chloro-3-nitropyridine-4-carbonitrile","-","A55638","25489863","-","-","74.0 - 76.0","?C","75.0","Celsius"
"CC1=C(C=C(C=C1)S(=O)(=O)NC(C)(C)C)C(O)=O","-","EN300-10565","4833","5-[(tert-butylamino)sulfonyl]-2-methylbenzoic acid","-","A55638","25489863","-","-","180.0 - 182.0","?C","181.0","Celsius"
"ClCCN1C=NC2=C(C=CC=C2)C1=O","-","EN300-105650","4834","3-(2-chloroethyl)-3,4-dihydroquinazolin-4-one","-","A55638","25489863","-","-","124.0 - 126.0","?C","125.0","Celsius"
"NC1=NC(=CO1)C1=C(F)C=CC=C1F","-","EN300-105655","4838","4-(2,6-difluorophenyl)-1,3-oxazol-2-amine","-","A55638","25489863","-","-","139.0 - 141.0","?C","140.0","Celsius"
"OC(=O)CC1(CCN(C1)C(=O)OCC1=CC=CC=C1)C(O)=O","-","EN300-105656","4839","1-[(benzyloxy)carbonyl]-3-(carboxymethyl)pyrrolidine-3-carboxylic acid","-","A55638","25489863","-","-","169.0 - 171.0","?C","170.0","Celsius"
"CCCC1CCC(=O)NC1=O","-","EN300-105657","4840","3-propylpiperidine-2,6-dione","-","A55638","25489863","-","-","76.0 - 78.0","?C","77.0","Celsius"
"COC1=C(C=C(C=C1)C(O)=O)S(=O)(=O)NC(C)(C)C","-","EN300-10566","4841","3-[(tert-butylamino)sulfonyl]-4-methoxybenzoic acid","-","A55638","25489863","-","-","218.0 - 220.0","?C","219.0","Celsius"
"CC1CNC2=C(N1)N=CC=C2","-","EN300-105665","4844","3-methyl-1H,2H,3H,4H-pyrido[2,3-b]pyrazine","-","A55638","25489863","-","-","110.0 - 112.0","?C","111.0","Celsius"
"FC1=C(C=CC(Br)=C1)N1CCCCC1=O","-","EN300-105666","4845","1-(4-bromo-2-fluorophenyl)piperidin-2-one","-","A55638","25489863","-","-","96.0 - 98.0","?C","97.0","Celsius"
"SC1=C(Cl)C=C(C=C1)C#N","-","EN300-105667","4846","3-chloro-4-sulfanylbenzonitrile","-","A55638","25489863","-","-","81.0 - 83.0","?C","82.0","Celsius"
"COCCNS(=O)(=O)C1=CC(C(O)=O)=C(Cl)C=C1","-","EN300-10567","4848","2-chloro-5-{[(2-methoxyethyl)amino]sulfonyl}benzoic acid","-","A55638","25489863","-","-","142.0 - 144.0","?C","143.0","Celsius"
"CC1=C(SC2=C1C=CC(F)=C2)S(Cl)(=O)=O","-","EN300-105670","4849","6-fluoro-3-methyl-1-benzothiophene-2-sulfonyl chloride","-","A55638","25489863","-","-","138.0 - 140.0","?C","139.0","Celsius"
"NC1=CC2=C(OC(CO)=N2)C=C1","-","EN300-105674","4850","(5-amino-1,3-benzoxazol-2-yl)methanol","-","A55638","25489863","-","-","113.0 - 115.0","?C","114.0","Celsius"
"OC(=O)CC1=CNC2=C1C=CC=N2","-","EN300-105676","4851","2-{1H-pyrrolo[2,3-b]pyridin-3-yl}acetic acid","-","A55638","25489863","-","-","215.0 - 217.0","?C","216.0","Celsius"
"CC1=C(OC2=CC=C(C=C2)C(O)=O)C=CC(=C1)C#N","-","EN300-105678","4852","4-(4-cyano-2-methylphenoxy)benzoic acid","-","A55638","25489863","-","-","212.0 - 214.0","?C","213.0","Celsius"
"COCCNS(=O)(=O)C1=CC(C(O)=O)=C(C)C=C1","-","EN300-10569","4853","5-{[(2-methoxyethyl)amino]sulfonyl}-2-methylbenzoic acid","-","A55638","25489863","-","-","137.0 - 139.0","?C","138.0","Celsius"
"OC(=O)C1=C(Cl)C=CC(=C1)S(=O)(=O)N1CCCC1","-","EN300-10570","4854","2-chloro-5-(pyrrolidin-1-ylsulfonyl)benzoic acid","-","A55638","25489863","-","-","194.0 - 196.0","?C","195.0","Celsius"
"ClC1=C(Cl)C=C(C=C1)N=[N+]=[N-]","-","EN300-105704","4855","4-azido-1,2-dichlorobenzene","-","A55638","25489863","-","-","32.0 - 34.0","?C","33.0","Celsius"
"NC1=NNC(=C1)C1=CC(F)=CC(F)=C1","-","EN300-105709","4856","5-(3,5-difluorophenyl)-1H-pyrazol-3-amine","-","A55638","25489863","-","-","110.0 - 112.0","?C","111.0","Celsius"
"CC(C)(O)C1=NC2=C(S1)C=CC=C2","-","EN300-105712","4857","2-(1,3-benzothiazol-2-yl)propan-2-ol","-","A55638","25489863","-","-","89.0 - 91.0","?C","90.0","Celsius"
"COC(=O)C1=CNC(=N1)C1CC1","-","EN300-105714","4858","methyl 2-cyclopropyl-1H-imidazole-4-carboxylate","-","A55638","25489863","-","-","119.0 - 121.0","?C","120.0","Celsius"
"CC(C)CCC(=O)NCCCS(N)(=O)=O","-","EN300-105715","4859","4-methyl-N-(3-sulfamoylpropyl)pentanamide","-","A55638","25489863","-","-","90.0 - 92.0","?C","91.0","Celsius"
"FC(F)(F)C1=CC(=CC=C1)N1C=C(N=N1)C(=O)CCl","-","EN300-105716","4860","2-chloro-1-{1-[3-(trifluoromethyl)phenyl]-1H-1,2,3-triazol-4-yl}ethan-1-one","-","A55638","25489863","-","-","162.0 - 164.0","?C","163.0","Celsius"
"OC(=O)C(S)C1=CC=CC=C1","-","EN300-105718","4861","2-phenyl-2-sulfanylacetic acid","-","A55638","25489863","-","-","58.0 - 60.0","?C","59.0","Celsius"
"CC(C)NS(=O)(=O)C1=CC(C(O)=O)=C(C)C=C1","-","EN300-10572","4862","5-[(isopropylamino)sulfonyl]-2-methylbenzoic acid","-","A55638","25489863","-","-","162.0 - 164.0","?C","163.0","Celsius"
"CN1N=C(C)C2=C1OCC(=O)N2","-","EN300-105720","4863","1,3-dimethyl-1H,4H,5H,6H-pyrazolo[3,4-b][1,4]oxazin-5-one","-","A55638","25489863","-","-","219.0 - 221.0","?C","220.0","Celsius"
"COC(=O)C1=C(C=NC=C1)C(O)=O","-","EN300-105727","4865","4-(methoxycarbonyl)pyridine-3-carboxylic acid","-","A55638","25489863","-","-","175.0 - 177.0","?C","176.0","Celsius"
"ClCC(=O)C1=C(NC2=C1C=CC=C2)C1=CC=CC=C1","-","EN300-10573","4866","2-chloro-1-(2-phenyl-1H-indol-3-yl)ethanone","-","A55638","25489863","-","-","140.0 - 142.0","?C","141.0","Celsius"
"ClC1=C(Cl)C=C(CC2=NNN=N2)C=C1","-","EN300-105733","4868","5-[(3,4-dichlorophenyl)methyl]-2H-1,2,3,4-tetrazole","-","A55638","25489863","-","-","153.0 - 155.0","?C","154.0","Celsius"
"CC1(C)CNCCS1(=O)=O","-","EN300-105735","4869","2,2-dimethyl-1$l^{6},4-thiomorpholine-1,1-dione","-","A55638","25489863","-","-","46.0 - 48.0","?C","47.0","Celsius"
"CC(CC(O)=O)C1=CC=NC=C1","-","EN300-105736","4870","3-(pyridin-4-yl)butanoic acid","-","A55638","25489863","-","-","171.0 - 173.0","?C","172.0","Celsius"
"NCC1=C(OC(F)F)C=C2OCOC2=C1","-","EN300-105737","4871","[6-(difluoromethoxy)-2H-1,3-benzodioxol-5-yl]methanamine","-","A55638","25489863","-","-","39.0 - 41.0","?C","40.0","Celsius"
"CCCCCC1=C(C)C(C(N)=O)=C(N)S1","-","EN300-105738","4872","2-amino-4-methyl-5-pentylthiophene-3-carboxamide","-","A55638","25489863","-","-","129.0 - 131.0","?C","130.0","Celsius"
"SC1=NN=CN1C1=CC(Cl)=CC=C1","66297-55-0","EN300-10575","4874","4-(3-chlorophenyl)-4H-1,2,4-triazole-3-thiol","-","A55638","25489863","-","-","187.0 - 189.0","?C","188.0","Celsius"
"CCOCCNC(N)=O","-","EN300-105752","4875","(2-ethoxyethyl)urea","-","A55638","25489863","-","-","60.0 - 62.0","?C","61.0","Celsius"
"CCOCCN1C(=O)NC(=O)C=C1N","-","EN300-105753","4876","6-amino-1-(2-ethoxyethyl)-1,2,3,4-tetrahydropyrimidine-2,4-dione","-","A55638","25489863","-","-","257.0 - 259.0","?C","258.0","Celsius"
"NC1=CC(Br)=CN=C1","-","EN300-105759","4877","5-bromopyridin-3-amine","-","A55638","25489863","-","-","65.0 - 69.0","?C","67.0","Celsius"
"CC1=C(C=C(C(F)=C1)[N+]([O-])=O)S(Cl)(=O)=O","-","EN300-105764","4878","4-fluoro-2-methyl-5-nitrobenzene-1-sulfonyl chloride","-","A55638","25489863","-","-","66.0 - 68.0","?C","67.0","Celsius"
"COC1=CC(=CC=C1)N1C=NN=C1S","36017-21-7","EN300-10577","4881","4-(3-methoxyphenyl)-4H-1,2,4-triazole-3-thiol","-","A55638","25489863","-","-","167.0 - 169.0","?C","168.0","Celsius"
"CC(C)(C)C1=NNC(O)=C1CCC#N","-","EN300-105792","4883","3-(3-tert-butyl-5-hydroxy-1H-pyrazol-4-yl)propanenitrile","-","A55638","25489863","-","-","218.0 - 220.0","?C","219.0","Celsius"
"CC1=C(C=C(C(Cl)=C1)[N+]([O-])=O)S(Cl)(=O)=O","-","EN300-105810","4884","4-chloro-2-methyl-5-nitrobenzene-1-sulfonyl chloride","-","A55638","25489863","-","-","116.0 - 118.0","?C","117.0","Celsius"
"NN=C1NN=C(C=C1)C(N)=O","-","EN300-105824","4886","6-hydrazinopyridazine-3-carboxamide","-","A55638","25489863","-","-","251.0 - 253.0","?C","252.0","Celsius"
"COC1=CC=CC(OC)=C1CC(O)=O","-","EN300-105826","4887","2-(2,6-dimethoxyphenyl)acetic acid","-","A55638","25489863","-","-","149.0 - 151.0","?C","150.0","Celsius"
"O=C1CC2(CCOC2)CN1","-","EN300-105827","4888","2-oxa-7-azaspiro[4.4]nonan-8-one","-","A55638","25489863","-","-","63.0 - 65.0","?C","64.0","Celsius"
"CCN1C(C)=CC(C(=O)CCl)=C1C","-","EN300-10583","4889","2-chloro-1-(1-ethyl-2,5-dimethyl-1H-pyrrol-3-yl)ethanone","-","A55638","25489863","-","-","89.0 - 91.0","?C","90.0","Celsius"
"OC(=O)CC1=NN(C=C1)C1=CC=CC=C1","-","EN300-105831","4890","2-(1-phenyl-1H-pyrazol-3-yl)acetic acid","-","A55638","25489863","-","-","99.0 - 101.0","?C","100.0","Celsius"
"N[C@H]1CC[C@@H](CO)CC1","-","EN300-105832","4891","cis-(4-aminocyclohexyl)methanol","-","A55638","25489863","-","-","144.0 - 146.0","?C","145.0","Celsius"
"CC1=CC=C(NC2=C(N)C=CC=N2)C=C1","-","EN300-105833","4892","2-N-(4-methylphenyl)pyridine-2,3-diamine","-","A55638","25489863","-","-","144.0 - 146.0","?C","145.0","Celsius"
"CC(=O)C1=C(C)C(=CC=C1)[N+]([O-])=O","-","EN300-105836","4894","1-(2-methyl-3-nitrophenyl)ethan-1-one","-","A55638","25489863","-","-","49.0 - 51.0","?C","50.0","Celsius"
"CC(Cl)C1=NC(O)=CC(C)=N1","-","EN300-105843","4896","2-(1-chloroethyl)-6-methylpyrimidin-4-ol","-","A55638","25489863","-","-","132.0 - 134.0","?C","133.0","Celsius"
"CC1=C(C)C(=CC=C1)C1(CCCN1)C(F)(F)F","-","EN300-105845","4898","2-(2,3-dimethylphenyl)-2-(trifluoromethyl)pyrrolidine","-","A55638","25489863","-","-","45.0 - 47.0","?C","46.0","Celsius"
"O=S1(=O)C=CC2=C1C=CC(=C2)C#N","-","EN300-105848","4899","1,1-dioxo-1$l^{6}-benzothiophene-5-carbonitrile","-","A55638","25489863","-","-","149.0 - 151.0","?C","150.0","Celsius"
"CC1=CC(=O)N(C1=O)C1=C(F)C=CC=C1","-","EN300-105852","4901","1-(2-fluorophenyl)-3-methyl-2,5-dihydro-1H-pyrrole-2,5-dione","-","A55638","25489863","-","-","83.0 - 85.0","?C","84.0","Celsius"
"CC1=C(C=NN1C1=CC=C(F)C=C1)S(Cl)(=O)=O","-","EN300-105854","4902","1-(4-fluorophenyl)-5-methyl-1H-pyrazole-4-sulfonyl chloride","-","A55638","25489863","-","-","96.0 - 98.0","?C","97.0","Celsius"
"OC(=O)CSC1=CC=C(O)C=C1","-","EN300-105862","4904","2-[(4-hydroxyphenyl)sulfanyl]acetic acid","-","A55638","25489863","-","-","141.0 - 143.0","?C","142.0","Celsius"
"CC1=CC(N2CCCC2)=C(C=C1)C#N","-","EN300-105864","4905","4-methyl-2-(pyrrolidin-1-yl)benzonitrile","-","A55638","25489863","-","-","68.0 - 70.0","?C","69.0","Celsius"
"NC1=CC(Br)=CNC1=S","-","EN300-105867","4906","3-amino-5-bromo-1,2-dihydropyridine-2-thione","-","A55638","25489863","-","-","190.0 - 192.0","?C","191.0","Celsius"
"NC1=C(C=CC(Cl)=C1)N1C=NC=N1","450399-92-5","EN300-10587","4907","5-chloro-2-(1H-1,2,4-triazol-1-yl)aniline","-","A55638","25489863","-","-","93.0 - 97.0","?C","95.0","Celsius"
"NCC1=CC=C(C=C1)C(=O)NC1=CC=C(F)C=C1","-","EN300-105874","4908","4-(aminomethyl)-N-(4-fluorophenyl)benzamide","-","A55638","25489863","-","-","145.0 - 147.0","?C","146.0","Celsius"
"FC1=CC(Br)=C(C=C1)C(=O)NC1=CC2=C(NC=C2)C=C1","-","EN300-105877","4909","2-bromo-4-fluoro-N-(1H-indol-5-yl)benzamide","-","A55638","25489863","-","-","185.0 - 187.0","?C","186.0","Celsius"
"COC(=O)CCCCCNC(=O)C1=CSC=C1","-","EN300-105879","4910","methyl 6-(thiophen-3-ylformamido)hexanoate","-","A55638","25489863","-","-","77.0 - 79.0","?C","78.0","Celsius"
"CCOC1=C(C=CC=C1)N1N=NN=C1SCC(O)=O","-","EN300-10588","4911","{[1-(2-ethoxyphenyl)-1H-tetrazol-5-yl]thio}acetic acid","-","A55638","25489863","-","-","145.0 - 147.0","?C","146.0","Celsius"
"ClC1=NC=CC(CN2CCNC(=O)C2)=C1","-","EN300-105881","4912","4-[(2-chloropyridin-4-yl)methyl]piperazin-2-one","-","A55638","25489863","-","-","143.0 - 145.0","?C","144.0","Celsius"
"COC1=C(NCC2=CN=CC=C2)C=C(Br)C=C1","-","EN300-105882","4913","5-bromo-2-methoxy-N-(pyridin-3-ylmethyl)aniline","-","A55638","25489863","-","-","66.0 - 68.0","?C","67.0","Celsius"
"CC1=CC(C(=O)CCl)=C(C)N1C1=NC=NN1","-","EN300-10590","4915","2-chloro-1-[2,5-dimethyl-1-(1H-1,2,4-triazol-5-yl)-1H-pyrrol-3-yl]ethanone","-","A55638","25489863","-","-","180.0 - 182.0","?C","181.0","Celsius"
"ON=CC1=NC=NC=C1","-","EN300-105917","4917","N-(pyrimidin-4-ylmethylidene)hydroxylamine","-","A55638","25489863","-","-","150.0 - 152.0","?C","151.0","Celsius"
"CN1C=C(C=N1)C1=C(N)N2C=CC=CC2=N1","-","EN300-105922","4919","2-(1-methyl-1H-pyrazol-4-yl)imidazo[1,2-a]pyridin-3-amine","-","A55638","25489863","-","-","149.0 - 151.0","?C","150.0","Celsius"
"CC(C)(O)C1=CN(N=N1)C1=CC=CC=C1","-","EN300-105924","4921","2-(1-phenyl-1H-1,2,3-triazol-4-yl)propan-2-ol","-","A55638","25489863","-","-","89.0 - 91.0","?C","90.0","Celsius"
"NC1=NC2=C(C=CC=C2Br)C=C1","-","EN300-105926","4922","8-bromoquinolin-2-amine","-","A55638","25489863","-","-","152.0 - 154.0","?C","153.0","Celsius"
"OC(=O)CN1C(=O)COC2=C1C=CC=C2","26494-55-3","EN300-10593","4923","(3-oxo-2,3-dihydro-4H-1,4-benzoxazin-4-yl)acetic acid","-","A55638","25489863","-","-","229.0 - 231.0","?C","230.0","Celsius"
"CN(C)C(=O)C1=NN=C(Cl)C=C1","-","EN300-105947","4926","6-chloro-N,N-dimethylpyridazine-3-carboxamide","-","A55638","25489863","-","-","137.0 - 139.0","?C","138.0","Celsius"
"CCC1=NNC(=O)C(C(O)=O)=C1CC","-","EN300-105949","4927","5,6-diethyl-3-oxo-2,3-dihydropyridazine-4-carboxylic acid","-","A55638","25489863","-","-","154.0 - 156.0","?C","155.0","Celsius"
"ClCCC(=O)NC1=C(C=CS1)C#N","-","EN300-10596","4928","3-chloro-N-(3-cyanothien-2-yl)propanamide","-","A55638","25489863","-","-","150.0 - 152.0","?C","151.0","Celsius"
"CC1=C2N=C(N)SC2=CC=C1F","-","EN300-105982","4930","5-fluoro-4-methyl-1,3-benzothiazol-2-amine","-","A55638","25489863","-","-","174.0 - 176.0","?C","175.0","Celsius"
"OC(=O)C1CSC(=O)C1","-","EN300-105983","4931","5-oxothiolane-3-carboxylic acid","-","A55638","25489863","-","-","108.0 - 110.0","?C","109.0","Celsius"
"CC1=CC(=CC(F)=C1)S(N)(=O)=O","-","EN300-105988","4932","3-fluoro-5-methylbenzene-1-sulfonamide","-","A55638","25489863","-","-","142.0 - 144.0","?C","143.0","Celsius"
"ClCC(=O)N(C1CCS(=O)(=O)C1)C1=CC=CC=C1","-","EN300-10599","4933","2-chloro-N-(1,1-dioxidotetrahydrothien-3-yl)-N-phenylacetamide","-","A55638","25489863","-","-","208.0 - 210.0","?C","209.0","Celsius"
"BrC1=CC2=C(C=C1)S(=O)(=O)NC2=O","-","EN300-105991","4934","5-bromo-2,3-dihydro-1$l^{6},2-benzothiazole-1,1,3-trione","-","A55638","25489863","-","-","245.0 - 247.0","?C","246.0","Celsius"
"COC1(CC(CO)(CO)C1)OC","-","EN300-105992","4935","[1-(hydroxymethyl)-3,3-dimethoxycyclobutyl]methanol","-","A55638","25489863","-","-","48.0 - 50.0","?C","49.0","Celsius"
"CCC(=O)C1=CC=C(C=C1)C(=O)OC","-","EN300-105998","4937","methyl 4-propanoylbenzoate","-","A55638","25489863","-","-","82.0 - 84.0","?C","83.0","Celsius"
"COC1=C(C=CC(O)=O)C=C2C=CC=CC2=N1","-","EN300-10600","4939","(2E)-3-(2-methoxyquinolin-3-yl)acrylic acid","-","A55638","25489863","-","-","219.0 - 221.0","?C","220.0","Celsius"
"CC(C)[C@H](N(C)C)C(O)=O","-","EN300-106003","4940","(2S)-2-(dimethylamino)-3-methylbutanoic acid","-","A55638","25489863","-","-","149.0 - 151.0","?C","150.0","Celsius"
"FC1=CC(=CC=C1)C(=O)C1=CC(Cl)=CC=C1","-","EN300-106011","4942","(3-chlorophenyl)(3-fluorophenyl)methanone","-","A55638","25489863","-","-","62.0 - 64.0","?C","63.0","Celsius"
"NC(=O)C1=CNC(=N1)C1CC1","-","EN300-106022","4943","2-cyclopropyl-1H-imidazole-4-carboxamide","-","A55638","25489863","-","-","216.0 - 218.0","?C","217.0","Celsius"
"NCC1=CC(=NO1)C(N)=O","-","EN300-106023","4944","5-(aminomethyl)-1,2-oxazole-3-carboxamide","-","A55638","25489863","-","-","149.0 - 151.0","?C","150.0","Celsius"
"OC(=O)CSC1=NN=C(C2CC2)N1CC1=CC=CC=C1","-","EN300-10603","4948","[(4-benzyl-5-cyclopropyl-4H-1,2,4-triazol-3-yl)thio]acetic acid","-","A55638","25489863","-","-","194.0 - 196.0","?C","195.0","Celsius"
"O=C1CC2=C(N1)C=CC=N2","-","EN300-106032","4949","1H,2H,3H-pyrrolo[3,2-b]pyridin-2-one","-","A55638","25489863","-","-","189.0 - 191.0","?C","190.0","Celsius"
"OC(=O)C1=CC(=C(Cl)N=C1)[N+]([O-])=O","-","EN300-106043","4950","6-chloro-5-nitropyridine-3-carboxylic acid","-","A55638","25489863","-","-","126.0 - 128.0","?C","127.0","Celsius"
"CCCN(C)S(N)(=O)=O","-","EN300-106048","4951","[methyl(propyl)sulfamoyl]amine","-","A55638","25489863","-","-","32.0 - 34.0","?C","33.0","Celsius"
"CC(Cl)C1=NN=C(O1)C1=C(Cl)C=C(Cl)C=C1","-","EN300-106049","4952","2-(1-chloroethyl)-5-(2,4-dichlorophenyl)-1,3,4-oxadiazole","-","A55638","25489863","-","-","55.0 - 57.0","?C","56.0","Celsius"
"CC(Cl)C1=NN=C(O1)C1=CC(Cl)=C(Cl)C=C1","-","EN300-106050","4953","2-(1-chloroethyl)-5-(3,4-dichlorophenyl)-1,3,4-oxadiazole","-","A55638","25489863","-","-","93.0 - 95.0","?C","94.0","Celsius"
"COC1=C(OC)C=C(C=C1)C(C)(C)C(O)=O","-","EN300-106056","4954","2-(3,4-dimethoxyphenyl)-2-methylpropanoic acid","-","A55638","25489863","-","-","84.0 - 86.0","?C","85.0","Celsius"