"SMILES","CASRN","EXTERNALID","N","NAME","NAME","ARTICLEID","PUBMEDID","PAGE","TABLE","Melting Point {measured}","UNIT {Melting Point}","Melting Point {measured, converted}","UNIT {Melting Point}"
"NC1=CC=C(SC2=NC3=C(N2)C=CC=C3)C=C1","956-13-8","EN300-08695","3023","4-(1H-benzimidazol-2-ylthio)aniline","-","A55638","25489863","-","-","224.0 - 226.0","?C","225.0","Celsius"
"O=C1CSC(=N1)N1CCCCC1","31101-37-8","EN300-08698","3024","2-piperidin-1-yl-1,3-thiazol-4(5H)-one","-","A55638","25489863","-","-","76.0 - 80.0","?C","78.0","Celsius"
"CC1=NC2=C(C=CC=C2)C2=C(N)C3=C(C=CC=C3)N12","55338-12-0","EN300-08700","3025","6-Methyl-indolo[1,2-c]quinazolin-12-ylamine","-","A55638","25489863","-","-","200.0 - 202.0","?C","201.0","Celsius"
"ON=CC1=NC2=C(O1)C=CC(Cl)=C2","27412-06-2","EN300-08706","3026","5-chloro-1,3-benzoxazole-2-carbaldehyde oxime","-","A55638","25489863","-","-","206.0 - 208.0","?C","207.0","Celsius"
"OCCNC1=C(C=CC=C1)[N+]([O-])=O","4926-55-0","EN300-08711","3028","2-[(2-nitrophenyl)amino]ethanol","-","A55638","25489863","-","-","76.0 - 78.0","?C","77.0","Celsius"
"CCOC1=C(OC)C(Br)=CC(=C1)C(O)=O","-","EN300-08716","3029","3-bromo-5-ethoxy-4-methoxybenzoic acid","-","A55638","25489863","-","-","182.0 - 184.0","?C","183.0","Celsius"
"NC1=NN=C(O1)C1=CC(=CC=C1)[N+]([O-])=O","7659-02-1","EN300-08717","3030","5-(3-nitrophenyl)-1,3,4-oxadiazol-2-amine","-","A55638","25489863","-","-","256.0 - 258.0","?C","257.0","Celsius"
"COC(=O)C1=C(C)NC(C(=O)CCl)=C1C","-","EN300-08718","3031","methyl 5-(chloroacetyl)-2,4-dimethyl-1H-pyrrole-3-carboxylate","-","A55638","25489863","-","-","166.0 - 168.0","?C","167.0","Celsius"
"CC1=C(C=CO1)C1=NN=C(S)N1C1=CC=CC=C1","-","EN300-08722","3032","5-(2-methyl-3-furyl)-4-phenyl-4H-1,2,4-triazole-3-thiol","-","A55638","25489863","-","-","234.0 - 236.0","?C","235.0","Celsius"
"CC(=O)C1=CC=C(C=C1)S(=O)(=O)NCC1=CC=CO1","-","EN300-08725","3033","4-acetyl-N-(2-furylmethyl)benzenesulfonamide","-","A55638","25489863","-","-","107.0 - 109.0","?C","108.0","Celsius"
"COC1=CC=C(NS(=O)(=O)C2=CC=C(C=C2)C(C)=O)C=C1","-","EN300-08726","3034","4-acetyl-N-(4-methoxyphenyl)benzenesulfonamide","-","A55638","25489863","-","-","121.0 - 123.0","?C","122.0","Celsius"
"OC(=O)C1CSC2(CCC(=O)N12)C1=CC=C(F)C=C1","-","EN300-08728","3035","7a-(4-fluorophenyl)-5-oxohexahydropyrrolo[2,1-b][1,3]thiazole-3-carboxylic acid","-","A55638","25489863","-","-","202.0 - 204.0","?C","203.0","Celsius"
"CC1=NN(CC2=CC=C(C)C=C2)C(C)=C1C=O","-","EN300-08731","3036","3,5-dimethyl-1-(4-methylbenzyl)-1H-pyrazole-4-carbaldehyde","-","A55638","25489863","-","-","65.0 - 67.0","?C","66.0","Celsius"
"COC1=C(C=CC=C1)N1C(C)=NN=C1SCC(O)=O","-","EN300-08738","3038","{[4-(2-methoxyphenyl)-5-methyl-4H-1,2,4-triazol-3-yl]thio}acetic acid","-","A55638","25489863","-","-","169.0 - 171.0","?C","170.0","Celsius"
"CS(=O)(=O)C1=CC2=C(C=C1)N=NN2O","-","EN300-08742","3039","6-(methylsulfonyl)-1H-1,2,3-benzotriazol-1-ol","-","A55638","25489863","-","-","192.0 - 194.0","?C","193.0","Celsius"
"OC(=O)C1=CC=C(NS(=O)(=O)C2=CC=CC=C2)C=C1","28547-16-2","EN300-08745","3040","4-[(phenylsulfonyl)amino]benzoic acid","-","A55638","25489863","-","-","209.0 - 211.0","?C","210.0","Celsius"
"OC(=O)CC1=CC=C(NS(=O)(=O)C2=CC=C(F)C=C2)C=C1","-","EN300-08746","3041","(4-{[(4-fluorophenyl)sulfonyl]amino}phenyl)acetic acid","-","A55638","25489863","-","-","180.0 - 182.0","?C","181.0","Celsius"
"FC1=CC(=CC=C1)S(=O)(=O)N1CCNCC1","-","EN300-08747","3042","1-[(3-fluorophenyl)sulfonyl]piperazine","-","A55638","25489863","-","-","97.0 - 99.0","?C","98.0","Celsius"
"OC(=O)CCNS(=O)(=O)C1=C(Cl)C=CC=C1Cl","-","EN300-08751","3044","3-{[(2,6-dichlorophenyl)sulfonyl]amino}propanoic acid","-","A55638","25489863","-","-","119.0 - 121.0","?C","120.0","Celsius"
"OC(=O)CNS(=O)(=O)C1=CC2=C(C=CC=C2)C=C1","92740-48-2","EN300-08752","3045","[(2-naphthylsulfonyl)amino]acetic acid","-","A55638","25489863","-","-","180.0 - 182.0","?C","181.0","Celsius"
"CC1=C(C=CC=C1)C1=NN=C(S)N1N","87239-95-0","EN300-08758","3046","4-amino-5-(2-methylphenyl)-4H-1,2,4-triazole-3-thiol","-","A55638","25489863","-","-","199.0 - 201.0","?C","200.0","Celsius"
"CC1=CC=C(O1)C1=CSC(N)=N1","1634-46-4","EN300-08762","3047","4-(5-methyl-2-furyl)-1,3-thiazol-2-amine","-","A55638","25489863","-","-","102.0 - 104.0","?C","103.0","Celsius"
"OC(=O)C1=CC=C(CNC(=O)CCl)C=C1","-","EN300-08764","3049","4-{[(chloroacetyl)amino]methyl}benzoic acid","-","A55638","25489863","-","-","193.0 - 195.0","?C","194.0","Celsius"
"CC1CCCCC11NC(=O)N(CC(O)=O)C1=O","-","EN300-08774","3050","(6-methyl-2,4-dioxo-1,3-diazaspiro[4.5]dec-3-yl)acetic acid","-","A55638","25489863","-","-","156.0 - 158.0","?C","157.0","Celsius"
"COC1=C(C=C(C=C1)C(O)=O)S(=O)(=O)NC1CCCCC1C","-","EN300-08777","3051","4-methoxy-3-{[(2-methylcyclohexyl)amino]sulfonyl}benzoic acid","-","A55638","25489863","-","-","201.0 - 203.0","?C","202.0","Celsius"
"OC(=O)CNS(=O)(=O)C1=C(F)C(F)=C(F)C=C1","-","EN300-08778","3052","{[(2,3,4-trifluorophenyl)sulfonyl]amino}acetic acid","-","A55638","25489863","-","-","175.0 - 177.0","?C","176.0","Celsius"
"CC1=NN(C(NC2=C(Cl)N=C3C=CC=CC3=N2)=C1)C1=CC=CC=C1","-","EN300-08780","3053","3-chloro-N-(3-methyl-1-phenyl-1H-pyrazol-5-yl)quinoxalin-2-amine","-","A55638","25489863","-","-","178.0 - 180.0","?C","179.0","Celsius"
"CCCOC1=C(C=CC(O)=O)C=C2C=CC=CC2=N1","-","EN300-08781","3054","(2E)-3-(2-propoxyquinolin-3-yl)acrylic acid","-","A55638","25489863","-","-","159.0 - 161.0","?C","160.0","Celsius"
"CC(Cl)C(=O)NC1CCCC(C)C1C","-","EN300-08784","3055","2-chloro-N-(2,3-dimethylcyclohexyl)propanamide","-","A55638","25489863","-","-","163.0 - 165.0","?C","164.0","Celsius"
"COC(=O)C1=C(N)SC=C1C1=CC=C(F)C=C1","350997-12-5","EN300-08786","3056","methyl 2-amino-4-(4-fluorophenyl)thiophene-3-carboxylate","-","A55638","25489863","-","-","135.0 - 137.0","?C","136.0","Celsius"
"CSCCC(NC(=O)C1=CC=CO1)C(O)=O","-","EN300-08792","3057","2-(2-furoylamino)-4-(methylthio)butanoic acid","-","A55638","25489863","-","-","185.0 - 187.0","?C","186.0","Celsius"
"CC1=C(OCC(O)=O)C(Cl)=CC(Br)=C1","-","EN300-08793","3058","(4-bromo-2-chloro-6-methylphenoxy)acetic acid","-","A55638","25489863","-","-","197.0 - 199.0","?C","198.0","Celsius"
"OC(=O)C1=C(CSC2=NC3=C(O2)C=CC=C3)C=CC=C1","-","EN300-08815","3061","2-[(1,3-benzoxazol-2-ylthio)methyl]benzoic acid","-","A55638","25489863","-","-","175.0 - 177.0","?C","176.0","Celsius"
"CC(NC(=O)NC1=CC=CC=C1)C(O)=O","-","EN300-08818","3062","2-[(anilinocarbonyl)amino]propanoic acid","-","A55638","25489863","-","-","180.0 - 182.0","?C","181.0","Celsius"
"OC(=O)CCNC(=O)NC1=CC=CC=C1","10250-66-5","EN300-08819","3063","3-[(anilinocarbonyl)amino]propanoic acid","-","A55638","25489863","-","-","173.0 - 175.0","?C","174.0","Celsius"
"CC(C)C(NC(=O)NC1=CC=CC=C1)C(O)=O","84860-35-5","EN300-08820","3064","2-[(anilinocarbonyl)amino]-3-methylbutanoic acid","-","A55638","25489863","-","-","140.0 - 142.0","?C","141.0","Celsius"
"CN1N=NN=C1SCC(=O)NC1=CC=C(C=C1)C(O)=O","-","EN300-08823","3065","4-({[(1-methyl-1H-tetrazol-5-yl)thio]acetyl}amino)benzoic acid","-","A55638","25489863","-","-","190.0 - 192.0","?C","191.0","Celsius"
"NC1=CC=NN1C1CCCCC1","3528-50-5","EN300-08825","3066","1-Cyclohexyl-1H-pyrazol-5-amine","-","A55638","25489863","-","-","80.0 - 82.0","?C","81.0","Celsius"
"CC1=CSC2=NC(CCl)=CC(=O)N12","-","EN300-08829","3067","7-(chloromethyl)-3-methyl-5H-[1,3]thiazolo[3,2-a]pyrimidin-5-one","-","A55638","25489863","-","-","100.0 - 104.0","?C","102.0","Celsius"
"CC1=C(C)C2=C(C=C1)C(CC(O)=O)=CO2","-","EN300-08835","3069","(6,7-dimethyl-1-benzofuran-3-yl)acetic acid","-","A55638","25489863","-","-","148.0 - 152.0","?C","150.0","Celsius"
"OC1=C(C=C2C=CC=CC2=C1)C(=O)NC1=NC=CC=C1","24445-26-9","EN300-08838","3070","3-hydroxy-N-pyridin-2-yl-2-naphthamide","-","A55638","25489863","-","-","236.0 - 238.0","?C","237.0","Celsius"
"OC(=O)C1=CC=C(COC2=CC3=C(C=CC=C3)C=C2)O1","-","EN300-08841","3071","5-[(2-naphthyloxy)methyl]-2-furoic acid","-","A55638","25489863","-","-","171.0 - 173.0","?C","172.0","Celsius"
"CC(=O)C1=CC(F)=C(C=C1)N1CCCC1","-","EN300-08844","3073","1-(3-fluoro-4-pyrrolidin-1-ylphenyl)ethanone","-","A55638","25489863","-","-","36.0 - 38.0","?C","37.0","Celsius"
"CC(=O)C1=CC(F)=C(SCC(O)=O)C=C1","-","EN300-08846","3074","[(4-acetyl-2-fluorophenyl)thio]acetic acid","-","A55638","25489863","-","-","140.0 - 142.0","?C","141.0","Celsius"
"OC(=O)C1=CC2=C(S1)C1=C(OC2)C=CC=C1","26268-04-2","EN300-08847","3075","4H-thieno[3,2-c]chromene-2-carboxylic acid","-","A55638","25489863","-","-","236.0 - 238.0","?C","237.0","Celsius"
"OC(=O)C=CC1=CC2=C(OCCO2)C=C1","14939-91-4","EN300-08849","3077","(2E)-3-(2,3-dihydro-1,4-benzodioxin-6-yl)acrylic acid","-","A55638","25489863","-","-","165.0 - 169.0","?C","167.0","Celsius"
"CC(C)(C)C1=CC=C(C=C1)C(=O)CC#N","39528-62-6","EN300-08862","3078","3-(4-tert-butylphenyl)-3-oxopropanenitrile","-","A55638","25489863","-","-","78.0 - 80.0","?C","79.0","Celsius"
"COC1=C(OC)C=C(CCNC2=NN=C(S)S2)C=C1","-","EN300-08863","3079","5-{[2-(3,4-dimethoxyphenyl)ethyl]amino}-1,3,4-thiadiazole-2-thiol","-","A55638","25489863","-","-","189.0 - 191.0","?C","190.0","Celsius"
"CCN(CC)C(N)=S","7204-46-8","EN300-08866","3080","N,N-DIETHYLTHIOUREA","-","A55638","25489863","-","-","98.0 - 102.0","?C","100.0","Celsius"
"ClC1=C(SC(=N1)N1CCCCC1)C=O","139670-00-1","EN300-08867","3081","4-chloro-2-piperidin-1-yl-1,3-thiazole-5-carbaldehyde","-","A55638","25489863","-","-","89.0 - 91.0","?C","90.0","Celsius"
"NC(=S)N1CCCC1","40398-36-5","EN300-08868","3082","pyrrolidine-1-carbothioamide","-","A55638","25489863","-","-","140.0 - 142.0","?C","141.0","Celsius"
"CC(C)(C)C1CCC2=C(C1)C=C(S2)C(O)=O","126231-22-9","EN300-08872","3083","5-tert-butyl-4,5,6,7-tetrahydro-1-benzothiophene-2-carboxylic acid","-","A55638","25489863","-","-","169.0 - 171.0","?C","170.0","Celsius"
"CCOC1=C(OC)C(Cl)=CC(C=O)=C1","-","EN300-08882","3085","3-chloro-5-ethoxy-4-methoxybenzaldehyde","-","A55638","25489863","-","-","55.0 - 57.0","?C","56.0","Celsius"
"CC(Cl)C(=O)C1=C(C)N(C(C)=C1)C1=CC=CC=C1","-","EN300-08889","3086","2-chloro-1-(2,5-dimethyl-1-phenyl-1H-pyrrol-3-yl)propan-1-one","-","A55638","25489863","-","-","78.0 - 82.0","?C","80.0","Celsius"
"NC1=CC(=NN1)C1=CC(=CC=C1)[N+]([O-])=O","142338-69-0","EN300-08890","3087","3-(3-nitrophenyl)-1H-pyrazol-5-amine","-","A55638","25489863","-","-","137.0 - 139.0","?C","138.0","Celsius"
"CC(Cl)C1=NC2=C(C(C)=C(C)S2)C(=O)N1","-","EN300-08891","3088","2-(1-chloroethyl)-5,6-dimethylthieno[2,3-d]pyrimidin-4(3H)-one","-","A55638","25489863","-","-","215.0 - 217.0","?C","216.0","Celsius"
"CCOC(=O)C1=C(C)C2=C(S1)N=C(CS(=O)(=O)CC(O)=O)NC2=O","-","EN300-08892","3089","({[6-(ethoxycarbonyl)-5-methyl-4-oxo-3,4-dihydrothieno[2,3-d]pyrimidin-2-yl]methyl}sulfonyl)acetic acid","-","A55638","25489863","-","-","277.0 - 279.0","?C","278.0","Celsius"
"CC(C)C1=C2N=C(Cl)C=C(C)C2=CC=C1","-","EN300-08893","3090","2-chloro-8-isopropyl-4-methylquinoline","-","A55638","25489863","-","-","43.0 - 45.0","?C","44.0","Celsius"
"COC1=C(OCC#C)C(Cl)=CC(C=O)=C1","-","EN300-08900","3091","3-chloro-5-methoxy-4-(prop-2-ynyloxy)benzaldehyde","-","A55638","25489863","-","-","106.0 - 108.0","?C","107.0","Celsius"
"COC1=C(OCCC(C)C)C=CC(=C1)C(=O)NN","-","EN300-08908","3095","3-methoxy-4-(3-methylbutoxy)benzohydrazide","-","A55638","25489863","-","-","88.0 - 90.0","?C","89.0","Celsius"
"CCOC(=O)C1=C(N)N(CCO)C2=C1N=C1C=CC=CC1=N2","30119-32-5","EN300-08910","3096","ethyl 2-amino-1-(2-hydroxyethyl)-1H-pyrrolo[2,3-b]quinoxaline-3-carboxylate","-","A55638","25489863","-","-","226.0 - 228.0","?C","227.0","Celsius"
"CCOC1=C(OC)C=C(C=CC(O)=O)C=C1","144878-40-0","EN300-08913","3097","(2E)-3-(4-ethoxy-3-methoxyphenyl)acrylic acid","-","A55638","25489863","-","-","202.0 - 204.0","?C","203.0","Celsius"
"CCN(CC)S(=O)(=O)C1=CC(N)=C(NCCO)C=C1","49804-34-4","EN300-08914","3098","3-amino-N,N-diethyl-4-[(2-hydroxyethyl)amino]benzenesulfonamide","-","A55638","25489863","-","-","157.0 - 159.0","?C","158.0","Celsius"
"NC1=C(Cl)C=C(Cl)C2=C1N=S=N2","-","EN300-08915","3099","4-amino-5,7-dichloro-2,1,3-benzothiadiazol","-","A55638","25489863","-","-","176.0 - 178.0","?C","177.0","Celsius"
"NNC(=O)C1=CC=C(C=C1)N1C=NN=N1","-","EN300-08916","3100","4-(1H-tetrazol-1-yl)benzohydrazide","-","A55638","25489863","-","-","228.0 - 230.0","?C","229.0","Celsius"
"NC1=CC=C(C=C1)S(=O)(=O)C(F)F","24906-77-2","EN300-08917","3101","4-[(difluoromethyl)sulfonyl]aniline","-","A55638","25489863","-","-","102.0 - 104.0","?C","103.0","Celsius"
"CCOC1=C(OC)C=C(C=C1Cl)C(O)=O","-","EN300-08919","3102","3-chloro-4-ethoxy-5-methoxybenzoic acid","-","A55638","25489863","-","-","116.0 - 118.0","?C","117.0","Celsius"
"SC1=NC2=C(N1)N=CC(Cl)=C2","19918-37-7","EN300-08920","3103","6-chloro-1,3-dihydro-2H-imidazo[4,5-b]pyridine-2-thione","-","A55638","25489863","-","-","352.0 - 354.0","?C","353.0","Celsius"
"O=CC1=C(OCC#C)C=CC=C1","29978-83-4","EN300-08922","3104","2-(prop-2-ynyloxy)benzaldehyde","-","A55638","25489863","-","-","70.0 - 72.0","?C","71.0","Celsius"
"SC1=NC2=C(N1)C(Cl)=CC(Cl)=C2","-","EN300-08924","3105","5,7-dichloro-1H-benzimidazole-2-thiol","-","A55638","25489863","-","-","376.0 - 378.0","?C","377.0","Celsius"
"FC1=CC=C(C=C1)C(=O)N1CCCCC(Cl)C1=O","-","EN300-08930","3107","3-chloro-1-(4-fluorobenzoyl)azepan-2-one","-","A55638","25489863","-","-","143.0 - 145.0","?C","144.0","Celsius"
"ClC1=C2C=CC=CC2=NC(=N1)C1=CN=CC=C1","-","EN300-08933","3108","4-chloro-2-pyridin-3-ylquinazoline","-","A55638","25489863","-","-","180.0 - 182.0","?C","181.0","Celsius"
"CCN(CC)CC1=NC2=C(C(C)=C(C)S2)C(Cl)=N1","-","EN300-08938","3109","N-[(4-chloro-5,6-dimethylthieno[2,3-d]pyrimidin-2-yl)methyl]-N,N-diethylamine","-","A55638","25489863","-","-","30.0 - 32.0","?C","31.0","Celsius"
"FC1=CC=C(C=C1)C1=CSC2=C1C(Cl)=NC(CC1=CC=C(Cl)C=C1)=N2","-","EN300-08941","3110","4-chloro-2-(4-chlorobenzyl)-5-(4-fluorophenyl)thieno[2,3-d]pyrimidine","-","A55638","25489863","-","-","148.0 - 150.0","?C","149.0","Celsius"
"CCNC(=O)COC1=C(OC)C=C(C=O)C=C1","-","EN300-08948","3111","N-ethyl-2-(4-formyl-2-methoxyphenoxy)acetamide","-","A55638","25489863","-","-","109.0 - 111.0","?C","110.0","Celsius"
"CSC1=C(C=C(C=C1)C(O)=O)[N+]([O-])=O","64399-24-2","EN300-08950","3112","4-(methylthio)-3-nitrobenzoic acid","-","A55638","25489863","-","-","225.0 - 227.0","?C","226.0","Celsius"
"CN1CCN(CC1)S(=O)(=O)C1=CC(=C(Cl)C=C1)[N+]([O-])=O","-","EN300-08951","3113","1-[(4-chloro-3-nitrophenyl)sulfonyl]-4-methylpiperazine","-","A55638","25489863","-","-","276.0 - 278.0","?C","277.0","Celsius"
"OC(=O)C1=CC=C(NC2=NS(=O)(=O)C3=C2C=CC=C3)C=C1","-","EN300-08953","3114","4-[(1,1-dioxido-1,2-benzisothiazol-3-yl)amino]benzoic acid","-","A55638","25489863","-","-","369.0 - 371.0","?C","370.0","Celsius"
"CC1=C(COC2=C(C=CC=C2)C(O)=O)C(C)=NO1","-","EN300-08954","3115","2-[(3,5-dimethylisoxazol-4-yl)methoxy]benzoic acid","-","A55638","25489863","-","-","172.0 - 174.0","?C","173.0","Celsius"
"CC(NC1=NS(=O)(=O)C2=C1C=CC=C2)C(O)=O","-","EN300-08956","3116","2-[(1,1-dioxido-1,2-benzisothiazol-3-yl)amino]propanoic acid","-","A55638","25489863","-","-","220.0 - 222.0","?C","221.0","Celsius"
"ClCC(=O)NC1=C(I)C=CC=C1","66947-88-4","EN300-08959","3117","2-chloro-N-(2-iodophenyl)acetamide","-","A55638","25489863","-","-","38.0 - 40.0","?C","39.0","Celsius"
"CC1=C(NC(=O)CCl)C=CC(=C1)[N+]([O-])=O","83473-10-3","EN300-08960","3118","2-chloro-N-(2-methyl-4-nitrophenyl)acetamide","-","A55638","25489863","-","-","118.0 - 120.0","?C","119.0","Celsius"
"CC(=O)NC1=CC(NC(=O)CCl)=CC=C1","88342-13-6","EN300-08961","3119","N-[3-(acetylamino)phenyl]-2-chloroacetamide","-","A55638","25489863","-","-","173.0 - 175.0","?C","174.0","Celsius"
"ClCC(=O)NCCC(C1=CC=CC=C1)C1=CC=CC=C1","137075-21-9","EN300-08962","3120","2-chloro-N-(3,3-diphenylpropyl)acetamide","-","A55638","25489863","-","-","104.0 - 107.0","?C","106.0","Celsius"
"FC1=CC=C(C=C1)N1C(=O)CSC1=S","387-27-9","EN300-08963","3121","3-(4-fluorophenyl)-2-thioxo-1,3-thiazolidin-4-one","-","A55638","25489863","-","-","137.0 - 139.0","?C","138.0","Celsius"
"COC1=C(C=O)C=C(Br)C=C1Br","61657-65-6","EN300-08964","3122","3,5-dibromo-2-methoxybenzaldehyde","-","A55638","25489863","-","-","93.0 - 96.0","?C","94.5","Celsius"
"CC1=NC2=C(C=CC=C2)C(=O)N1C1=CC=C(Br)C=C1","1788-95-0","EN300-08967","3123","3-(4-bromophenyl)-2-methylquinazolin-4(3H)-one","-","A55638","25489863","-","-","176.0 - 178.0","?C","177.0","Celsius"
"CC1=NC2=C(C=CC=C2)C(=O)N1C1=CC=C(F)C=C1","1897-80-9","EN300-08968","3124","3-(4-fluorophenyl)-2-methylquinazolin-4(3H)-one","-","A55638","25489863","-","-","134.0 - 136.0","?C","135.0","Celsius"
"OC1=CC=C(NC(=O)C2=CC=CC=C2)C=C1","15457-50-8","EN300-08969","3125","N-(4-hydroxyphenyl)benzamide","-","A55638","25489863","-","-","215.0 - 217.0","?C","216.0","Celsius"
"COC1=C(NC(=O)CCl)C=C(C=C1)S(=O)(=O)N(C)C","-","EN300-08978","3129","2-chloro-N-{5-[(dimethylamino)sulfonyl]-2-methoxyphenyl}acetamide","-","A55638","25489863","-","-","152.0 - 154.0","?C","153.0","Celsius"
"BrCC(=O)C1=CC=C(C=C1)S(=O)(=O)N1CCCCCC1","-","EN300-08979","3130","1-[4-(azepan-1-ylsulfonyl)phenyl]-2-bromoethanone","-","A55638","25489863","-","-","70.0 - 72.0","?C","71.0","Celsius"
"BrCC(=O)C1=CC=C(C=C1)S(=O)(=O)N1CCCC1","-","EN300-08980","3131","2-bromo-1-[4-(pyrrolidin-1-ylsulfonyl)phenyl]ethanone","-","A55638","25489863","-","-","121.0 - 123.0","?C","122.0","Celsius"
"CC(C)N1C(S)=NC2=C(C(C)=C(C)S2)C1=O","-","EN300-08982","3132","3-isopropyl-2-mercapto-5,6-dimethylthieno[2,3-d]pyrimidin-4(3H)-one","-","A55638","25489863","-","-","270.0 - 272.0","?C","271.0","Celsius"
"CC(NS(=O)(=O)C1=CC=C(NC(C)=O)C=C1)C(O)=O","-","EN300-08986","3133","2-({[4-(acetylamino)phenyl]sulfonyl}amino)propanoic acid","-","A55638","25489863","-","-","178.0 - 180.0","?C","179.0","Celsius"
"CC(C)CN1C(S)=NC2=C(C(=CS2)C2=CC=CS2)C1=O","-","EN300-08987","3134","3-isobutyl-2-mercapto-5-thien-2-ylthieno[2,3-d]pyrimidin-4(3H)-one","-","A55638","25489863","-","-","236.0 - 238.0","?C","237.0","Celsius"
"CSCCC(NS(=O)(=O)C1=C(F)C=CC=C1)C(O)=O","-","EN300-08992","3135","2-{[(2-fluorophenyl)sulfonyl]amino}-4-(methylthio)butanoic acid","-","A55638","25489863","-","-","104.0 - 106.0","?C","105.0","Celsius"
"COC1=C(C=CC=C1)C(=O)NC(C(C)C)C(O)=O","-","EN300-08993","3136","2-[(2-methoxybenzoyl)amino]-3-methylbutanoic acid","-","A55638","25489863","-","-","128.0 - 129.0","?C","128.0","Celsius"
"CC1CCC(CC1)NC(=O)CCl","-","EN300-08994","3137","2-chloro-N-(4-methylcyclohexyl)acetamide","-","A55638","25489863","-","-","152.0 - 155.0","?C","154.0","Celsius"
"CC(=O)NC1=CC=C(C=C1)S(=O)(=O)NCCC(O)=O","7478-88-8","EN300-08995","3138","3-({[4-(acetylamino)phenyl]sulfonyl}amino)propanoic acid","-","A55638","25489863","-","-","160.0 - 162.0","?C","161.0","Celsius"
"CC(C)C1=C(NC(=O)C(C)Cl)C(C)=CC=C1","-","EN300-08998","3139","2-chloro-N-(2-isopropyl-6-methylphenyl)propanamide","-","A55638","25489863","-","-","126.0 - 128.0","?C","127.0","Celsius"
"CC(Cl)C(=O)NC1=C(C)C=CC=C1","-","EN300-09007","3140","2-chloro-N-(2-methylphenyl)propanamide","-","A55638","25489863","-","-","112.0 - 114.0","?C","113.0","Celsius"
"CC(Cl)C(=O)NC1=CC(=CC=C1)S(=O)(=O)N(C)C","-","EN300-09008","3141","2-chloro-N-{3-[(dimethylamino)sulfonyl]phenyl}propanamide","-","A55638","25489863","-","-","163.0 - 167.0","?C","165.0","Celsius"
"CN1C(S)=NC2=C(C(C)=C(C)S2)C1=O","59898-59-8","EN300-09010","3142","2-mercapto-3,5,6-trimethylthieno[2,3-d]pyrimidin-4(3H)-one","-","A55638","25489863","-","-","288.0 - 290.0","?C","289.0","Celsius"
"CN1C(S)=NN=C1CC1=CC=CS1","667435-87-2","EN300-09033","3143","4-methyl-5-(thien-2-ylmethyl)-4H-1,2,4-triazole-3-thiol","-","A55638","25489863","-","-","157.0 - 161.0","?C","159.0","Celsius"
"CC1=CSC(SCC2=C(C=CC=C2)C(O)=O)=N1","-","EN300-09034","3144","2-{[(4-methyl-1,3-thiazol-2-yl)thio]methyl}benzoic acid","-","A55638","25489863","-","-","159.0 - 162.0","?C","160.0","Celsius"
"OC(=O)C1=C(CSC2=NN=CN2)C=CC=C1","-","EN300-09037","3145","2-[(4H-1,2,4-triazol-3-ylthio)methyl]benzoic acid","-","A55638","25489863","-","-","177.0 - 179.0","?C","178.0","Celsius"