"SMILES","CASRN","EXTERNALID","N","NAME","NAME","ARTICLEID","PUBMEDID","PAGE","TABLE","Melting Point {measured}","UNIT {Melting Point}","Melting Point {measured, converted}","UNIT {Melting Point}"
"BrC1=CC(C=O)=C(OCC2=CC=CC=C2)C=C1","121124-94-5","EN300-07670","2638","2-(benzyloxy)-5-bromobenzaldehyde","-","A55638","25489863","-","-","61.0 - 63.0","?C","62.0","Celsius"
"NC(=O)NC(CC(O)=O)C1=CC=C(Cl)C=C1","39773-45-0","EN300-07680","2639","3-[(aminocarbonyl)amino]-3-(4-chlorophenyl)propanoic acid","-","A55638","25489863","-","-","198.0 - 200.0","?C","199.0","Celsius"
"OC(=O)CNS(=O)(=O)C1=C(Cl)C=CC(=C1)C(F)(F)F","-","EN300-07681","2640","({[2-chloro-5-(trifluoromethyl)phenyl]sulfonyl}amino)acetic acid","-","A55638","25489863","-","-","157.0 - 159.0","?C","158.0","Celsius"
"CS(=O)(=O)C1=CC(NC(=O)CCl)=C(Cl)C=C1","-","EN300-07692","2641","2-chloro-N-[2-chloro-5-(methylsulfonyl)phenyl]acetamide","-","A55638","25489863","-","-","148.0 - 149.0","?C","148.0","Celsius"
"OC(=O)CSC1=C(Cl)C=CC=C1","18619-18-6","EN300-07701","2645","[(2-chlorophenyl)thio]acetic acid","-","A55638","25489863","-","-","115.0 - 117.0","?C","116.0","Celsius"
"CC(=O)NC1=CC=C(SCC(O)=O)C=C1","3406-74-4","EN300-07705","2646","{[4-(acetylamino)phenyl]thio}acetic acid","-","A55638","25489863","-","-","156.0 - 158.0","?C","157.0","Celsius"
"OC(=O)CSC1=C(F)C=CC=C1","705-02-2","EN300-07706","2647","[(2-fluorophenyl)thio]acetic acid","-","A55638","25489863","-","-","80.0 - 82.0","?C","81.0","Celsius"
"OC(=O)CSC1=CC(=CC=C1)C(F)(F)F","349-83-7","EN300-07707","2648","{[3-(trifluoromethyl)phenyl]thio}acetic acid","-","A55638","25489863","-","-","19.0 - 21.0","?C","20.0","Celsius"
"COC1=C(OC)C=C(CC2=NC3=C(C4=C(CCC4)S3)C(=O)N2)C=C1","-","EN300-07711","2649","2-(3,4-dimethoxybenzyl)-3,5,6,7-tetrahydro-4H-cyclopenta[4,5]thieno[2,3-d]pyrimidin-4-one","-","A55638","25489863","-","-","237.0 - 239.0","?C","238.0","Celsius"
"COC1=CC2=C(C=C1)C(C)=CC1=NN=C(S)N21","-","EN300-07712","2650","8-methoxy-5-methyl[1,2,4]triazolo[4,3-a]quinoline-1-thiol","-","A55638","25489863","-","-","256.0 - 258.0","?C","257.0","Celsius"
"CC(Cl)C(=O)C1=C(C)N(C(C)=C1)C1=CC=C(Cl)C=C1","-","EN300-07721","2653","2-chloro-1-[1-(4-chlorophenyl)-2,5-dimethyl-1H-pyrrol-3-yl]propan-1-one","-","A55638","25489863","-","-","107.0 - 111.0","?C","109.0","Celsius"
"NC1=NC2=C(S1)C=C(C=C2)S(N)(=O)=O","18101-58-1","EN300-07723","2655","2-amino-1,3-benzothiazole-6-sulfonamide","-","A55638","25489863","-","-","259.0 - 261.0","?C","260.0","Celsius"
"CC(NC(=O)CCl)C1=CC=C(F)C=C1","-","EN300-07730","2658","2-chloro-N-[1-(4-fluorophenyl)ethyl]acetamide","-","A55638","25489863","-","-","71.0 - 73.0","?C","72.0","Celsius"
"O=CC1=C(OCC#N)C=CC=C1","-","EN300-07738","2659","(2-formylphenoxy)acetonitrile","-","A55638","25489863","-","-","79.0 - 81.0","?C","80.0","Celsius"
"CC1=NN(CC2=CC=C(C)C=C2)C(C)=C1C(O)=O","-","EN300-07741","2660","3,5-dimethyl-1-(4-methylbenzyl)-1H-pyrazole-4-carboxylic acid","-","A55638","25489863","-","-","134.0 - 136.0","?C","135.0","Celsius"
"CC1=NN(C2CCS(=O)(=O)C2)C(N2CCCCC2)=C1C=O","-","EN300-07743","2661","1-(1,1-dioxidotetrahydrothien-3-yl)-3-methyl-5-piperidin-1-yl-1H-pyrazole-4-carbaldehyde","-","A55638","25489863","-","-","86.0 - 88.0","?C","87.0","Celsius"
"CC1=NN(C(Cl)=C1C(O)=O)C1=CC=C(F)C=C1","-","EN300-07744","2662","5-chloro-1-(4-fluorophenyl)-3-methyl-1H-pyrazole-4-carboxylic acid","-","A55638","25489863","-","-","253.0 - 255.0","?C","254.0","Celsius"
"CC1=CC(C=C(C#N)C(O)=O)=C(C)N1C1=CC(C)=CC=C1","-","EN300-07746","2663","(2E)-2-cyano-3-[2,5-dimethyl-1-(3-methylphenyl)-1H-pyrrol-3-yl]acrylic acid","-","A55638","25489863","-","-","75.0 - 77.0","?C","76.0","Celsius"
"CCC1(CC)NC(=O)N(CC(O)=O)C1=O","714-71-6","EN300-07750","2665","(4,4-diethyl-2,5-dioxoimidazolidin-1-yl)acetic acid","-","A55638","25489863","-","-","169.0 - 173.0","?C","171.0","Celsius"
"NC(=O)C1CC(O)CN1","-","EN300-07752","2666","4-hydroxypyrrolidine-2-carboxamide","-","A55638","25489863","-","-","117.0 - 119.0","?C","118.0","Celsius"
"NNC(=O)CSC1=C(F)C=CC=C1","-","EN300-07754","2667","2-[(2-fluorophenyl)thio]acetohydrazide","-","A55638","25489863","-","-","131.0 - 133.0","?C","132.0","Celsius"
"CCN1CCN(CC1)C1=C(F)C=C(C=C1)C(C)=O","-","EN300-07756","2668","1-[4-(4-ethylpiperazin-1-yl)-3-fluorophenyl]ethanone","-","A55638","25489863","-","-","68.0 - 70.0","?C","69.0","Celsius"
"CC(=O)C1=CC(F)=C(C=C1)N1CCCCC1","-","EN300-07758","2669","1-(3-fluoro-4-piperidin-1-ylphenyl)ethanone","-","A55638","25489863","-","-","67.0 - 69.0","?C","68.0","Celsius"
"CC(=O)C1=CC(F)=C(C=C1)N1CCOCC1","-","EN300-07759","2670","1-(3-fluoro-4-morpholin-4-ylphenyl)ethanone","-","A55638","25489863","-","-","84.0 - 86.0","?C","85.0","Celsius"
"NNC(=O)CCSC1=CC=C(F)C=C1","-","EN300-07760","2671","3-[(4-fluorophenyl)thio]propanohydrazide","-","A55638","25489863","-","-","98.0 - 100.0","?C","99.0","Celsius"
"FC1=CC2=C(C=C1)S(=O)(=O)CCC2=O","-","EN300-07761","2672","6-fluoro-2,3-dihydro-4H-thiochromen-4-one 1,1-dioxide","-","A55638","25489863","-","-","163.0 - 167.0","?C","165.0","Celsius"
"NC1=CC(=NN1C1=CC=CC=C1)C1=CC=C(Cl)C=C1","19652-14-3","EN300-07766","2673","3-(4-chlorophenyl)-1-phenyl-1H-pyrazol-5-amine","-","A55638","25489863","-","-","191.0 - 193.0","?C","192.0","Celsius"
"OC1=C(C=C2C=CC=CC2=C1)C(=O)NCC1=CC=CC=C1","-","EN300-07770","2674","N-benzyl-3-hydroxy-2-naphthamide","-","A55638","25489863","-","-","180.0 - 182.0","?C","181.0","Celsius"
"OC1=C(C=C2C=CC=CC2=C1)C(=O)N1CCOCC1","3692-67-9","EN300-07771","2675","3-(morpholin-4-ylcarbonyl)-2-naphthol","-","A55638","25489863","-","-","216.0 - 218.0","?C","217.0","Celsius"
"NN1C(S)=NN=C1C1=C(Br)C=CC=C1","61055-40-1","EN300-07781","2677","4-amino-5-(2-bromophenyl)-4H-1,2,4-triazole-3-thiol","-","A55638","25489863","-","-","188.0 - 190.0","?C","189.0","Celsius"
"CCOC1=C(O)C(Cl)=CC(=C1)C(O)=O","-","EN300-07783","2678","3-chloro-5-ethoxy-4-hydroxybenzoic acid","-","A55638","25489863","-","-","204.0 - 206.0","?C","205.0","Celsius"
"CC(Cl)C1=NC2=C(C3=C(CC(C)CC3)S2)C(=O)N1","-","EN300-07785","2679","2-(1-chloroethyl)-7-methyl-5,6,7,8-tetrahydro[1]benzothieno[2,3-d]pyrimidin-4(3H)-one","-","A55638","25489863","-","-","248.0 - 250.0","?C","249.0","Celsius"
"CC(Cl)C1=NC2=C(C(=CS2)C2=CC=CC=C2)C(=O)N1","-","EN300-07786","2680","2-(1-chloroethyl)-5-phenylthieno[2,3-d]pyrimidin-4(3H)-one","-","A55638","25489863","-","-","165.0 - 167.0","?C","166.0","Celsius"
"CC1(NC(=O)NC1=O)C1=CC2=C(OCO2)C=C1","-","EN300-07787","2681","5-(1,3-benzodioxol-5-yl)-5-methylimidazolidine-2,4-dione","-","A55638","25489863","-","-","197.0 - 199.0","?C","198.0","Celsius"
"COC1=C(OC)C(Cl)=CC(C=O)=C1","18268-68-3","EN300-07788","2682","3-chloro-4,5-dimethoxybenzaldehyde","-","A55638","25489863","-","-","56.0 - 58.0","?C","57.0","Celsius"
"CC1=NN(C(N)=C1)C1=CC(C)=CC(C)=C1","-","EN300-07790","2683","1-(3,5-dimethylphenyl)-3-methyl-1H-pyrazol-5-amine","-","A55638","25489863","-","-","95.0 - 97.0","?C","96.0","Celsius"
"ClCC1=NC2=C(C(=CS2)C2=C(Cl)C=CC=C2)C(=O)N1","-","EN300-07793","2684","2-(chloromethyl)-5-(2-chlorophenyl)thieno[2,3-d]pyrimidin-4(3H)-one","-","A55638","25489863","-","-","167.0 - 169.0","?C","168.0","Celsius"
"CCN(CC)C(=O)C1=C(C)C2=C(S1)N=C(CCl)NC2=O","-","EN300-07795","2685","2-(chloromethyl)-N,N-diethyl-5-methyl-4-oxo-3,4-dihydrothieno[2,3-d]pyrimidine-6-carboxamide","-","A55638","25489863","-","-","174.0 - 176.0","?C","175.0","Celsius"
"CCN1C(S)=NC2=C1C=CC(=C2)S(=O)(=O)N1CCOCC1","-","EN300-07801","2688","1-ethyl-5-(morpholin-4-ylsulfonyl)-1H-benzimidazole-2-thiol","-","A55638","25489863","-","-","227.0 - 229.0","?C","228.0","Celsius"
"CN(C)S(=O)(=O)C1=CC2=C(C=C1)N(C)C(CCC(O)=O)=N2","-","EN300-07803","2689","3-{5-[(dimethylamino)sulfonyl]-1-methyl-1H-benzimidazol-2-yl}propanoic acid","-","A55638","25489863","-","-","205.0 - 209.0","?C","207.0","Celsius"
"CC(C)C1=CC=C(C=NO)C=C1","13372-80-0","EN300-07810","2691","4-isopropylbenzaldehyde oxime","-","A55638","25489863","-","-","64.0 - 66.0","?C","65.0","Celsius"
"CCOC(=O)C1=C(C)C2=C(S1)N=C(NC2=O)C(C)Cl","-","EN300-07814","2692","ethyl 2-(1-chloroethyl)-5-methyl-4-oxo-3,4-dihydrothieno[2,3-d]pyrimidine-6-carboxylate","-","A55638","25489863","-","-","167.0 - 169.0","?C","168.0","Celsius"
"CCOC(=O)C1=C(N)SC(C)=C1CC(C)CC","-","EN300-07826","2693","ethyl 2-amino-5-methyl-4-(2-methylbutyl)thiophene-3-carboxylate","-","A55638","25489863","-","-","77.0 - 79.0","?C","78.0","Celsius"
"CC1=CC(N2N=C(CCC2=O)C(O)=O)=C(C)C=C1","-","EN300-07842","2698","1-(2,5-dimethylphenyl)-6-oxo-1,4,5,6-tetrahydropyridazine-3-carboxylic acid","-","A55638","25489863","-","-","149.0 - 151.0","?C","150.0","Celsius"
"BrCCOC1=CC=C(C=C1)C#N","37142-39-5","EN300-07850","2699","4-(2-bromoethoxy)benzonitrile","-","A55638","25489863","-","-","55.0 - 59.0","?C","57.0","Celsius"
"CC1=CC(C=C(C#N)C(O)=O)=C(C)N1C1=C(F)C=CC=C1","-","EN300-07858","2701","(2E)-2-cyano-3-[1-(2-fluorophenyl)-2,5-dimethyl-1H-pyrrol-3-yl]acrylic acid","-","A55638","25489863","-","-","165.0 - 167.0","?C","166.0","Celsius"
"CCN1C(SCC(O)=O)=NN=C1C1=CC=CO1","-","EN300-07862","2702","{[4-ethyl-5-(2-furyl)-4H-1,2,4-triazol-3-yl]thio}acetic acid","-","A55638","25489863","-","-","173.0 - 175.0","?C","174.0","Celsius"
"CCN1C(SCC(O)=O)=NN=C1C1=CC=CS1","-","EN300-07864","2703","[(4-ethyl-5-thien-2-yl-4H-1,2,4-triazol-3-yl)thio]acetic acid","-","A55638","25489863","-","-","157.0 - 159.0","?C","158.0","Celsius"
"CC(Cl)C1=NC2=C(C(=CS2)C2=CC=CS2)C(=O)N1","-","EN300-07871","2704","2-(1-chloroethyl)-5-thien-2-ylthieno[2,3-d]pyrimidin-4(3H)-one","-","A55638","25489863","-","-","241.0 - 243.0","?C","242.0","Celsius"
"O=C1NC(CN2CCOCC2)=NC2=C1C1=C(CCCC1)S2","20887-01-8","EN300-07872","2705","2-(morpholin-4-ylmethyl)-5,6,7,8-tetrahydro[1]benzothieno[2,3-d]pyrimidin-4(3H)-one","-","A55638","25489863","-","-","162.0 - 164.0","?C","163.0","Celsius"
"COC(=O)C1=CC(=CC(=C1)N1C(C)=CC(C(=O)CCl)=C1C)C(=O)OC","-","EN300-07876","2706","dimethyl 5-[3-(chloroacetyl)-2,5-dimethyl-1H-pyrrol-1-yl]isophthalate","-","A55638","25489863","-","-","153.0 - 155.0","?C","154.0","Celsius"
"OC(=O)C1=CC(=CC=C1)S(=O)(=O)NCC1=CN=CC=C1","-","EN300-07878","2707","3-{[(pyridin-3-ylmethyl)amino]sulfonyl}benzoic acid","-","A55638","25489863","-","-","231.0 - 233.0","?C","232.0","Celsius"
"OC(=O)CNC(=O)CC12CC3CC(CC(C3)C1)C2","-","EN300-07880","2708","[(1-adamantylacetyl)amino]acetic acid","-","A55638","25489863","-","-","165.0 - 167.0","?C","166.0","Celsius"
"CC1=NN(C(C)=C1NC(=O)CCl)C1=CC=CC=C1","92026-64-7","EN300-07884","2709","2-chloro-N-(3,5-dimethyl-1-phenyl-1H-pyrazol-4-yl)acetamide","-","A55638","25489863","-","-","149.0 - 151.0","?C","150.0","Celsius"
"CC1=NN(C=C1C=O)C1=CC=C(F)C=C1","-","EN300-07888","2710","1-(4-fluorophenyl)-3-methyl-1H-pyrazole-4-carbaldehyde","-","A55638","25489863","-","-","91.0 - 93.0","?C","92.0","Celsius"
"OCC1=CC(=CC=C1)S(=O)(=O)N1CCOCC1","-","EN300-07898","2713","[3-(morpholin-4-ylsulfonyl)phenyl]methanol","-","A55638","25489863","-","-","96.0 - 98.0","?C","97.0","Celsius"
"NC(=O)NC(CC(O)=O)C1=CC(Br)=CC=C1","-","EN300-07905","2714","3-[(aminocarbonyl)amino]-3-(3-bromophenyl)propanoic acid","-","A55638","25489863","-","-","159.0 - 161.0","?C","160.0","Celsius"
"CN(CC(=O)NC1=C(Cl)C=CC=C1)C(=O)CCl","-","EN300-07906","2715","2-chloro-N-{2-[(2-chlorophenyl)amino]-2-oxoethyl}-N-methylacetamide","-","A55638","25489863","-","-","115.0 - 117.0","?C","116.0","Celsius"
"CC1=C(C=CC=C1)C(=O)CC#N","35276-81-4","EN300-07908","2717","3-(2-methylphenyl)-3-oxopropanenitrile","-","A55638","25489863","-","-","84.0 - 86.0","?C","85.0","Celsius"
"FC(F)OC1=CC=C(C=C1)C(=O)C1=CC=CC=C1","-","EN300-07909","2718","[4-(difluoromethoxy)phenyl](phenyl)methanone","-","A55638","25489863","-","-","156.0 - 158.0","?C","157.0","Celsius"
"CC1=C(C)C=C2C(CC(O)=O)=COC2=C1","-","EN300-07911","2719","(5,6-dimethyl-1-benzofuran-3-yl)acetic acid","-","A55638","25489863","-","-","133.0 - 135.0","?C","134.0","Celsius"
"CCC1=CC(=O)N2C3=C(NC2=C1C#N)C=CC=C3","-","EN300-07912","2720","3-ethyl-1-oxo-1,5-dihydropyrido[1,2-a]benzimidazole-4-carbonitrile","-","A55638","25489863","-","-","244.0 - 246.0","?C","245.0","Celsius"
"C1CC(CCN1)C1=NC2=C(O1)C=CC=C2","51784-03-3","EN300-07913","2721","2-piperidin-4-yl-1,3-benzoxazole","-","A55638","25489863","-","-","111.0 - 113.0","?C","112.0","Celsius"
"OC1=C(Cl)C=C(C=C1)C1=NC2=C(S1)C=CC=C2","-","EN300-07914","2722","4-(1,3-benzothiazol-2-yl)-2-chlorophenol","-","A55638","25489863","-","-","186.0 - 188.0","?C","187.0","Celsius"
"O=S1(=O)CCC(C1)NC1=CC=CC=C1","35889-69-1","EN300-07920","2723","N-(1,1-dioxidotetrahydrothien-3-yl)-N-phenylamine","-","A55638","25489863","-","-","119.0 - 123.0","?C","121.0","Celsius"
"CC1=CC(C=O)=C(C)N1CC1=CC=CO1","5049-49-0","EN300-07927","2726","1-(2-furylmethyl)-2,5-dimethyl-1H-pyrrole-3-carbaldehyde","-","A55638","25489863","-","-","87.0 - 89.0","?C","88.0","Celsius"
"CC1CCN(CC2=NC3=C(C4=C(CCC4)S3)C(=O)N2)CC1","-","EN300-07928","2727","2-[(4-methylpiperidin-1-yl)methyl]-3,5,6,7-tetrahydro-4H-cyclopenta[4,5]thieno[2,3-d]pyrimidin-4-one","-","A55638","25489863","-","-","256.0 - 258.0","?C","257.0","Celsius"
"COC1=C(OCC(C)C)C=C(C=O)C=C1","57724-26-2","EN300-07938","2728","3-isobutoxy-4-methoxybenzaldehyde","-","A55638","25489863","-","-","40.0 - 42.0","?C","41.0","Celsius"
"CC1=NN(C(=O)C1)C1=C(C)C=CC(C)=C1","-","EN300-07939","2729","2-(2,5-dimethylphenyl)-5-methyl-2,4-dihydro-3H-pyrazol-3-one","-","A55638","25489863","-","-","164.0 - 166.0","?C","165.0","Celsius"
"FC(F)(F)C1=C(C=CC(Cl)=C1)S(Cl)(=O)=O","54090-42-5","EN300-07942","2731","4-chloro-2-(trifluoromethyl)benzenesulfonyl chloride","-","A55638","25489863","-","-","45.0 - 47.0","?C","46.0","Celsius"
"CCOC1=C(N)C=C(C=C1)S(=O)(=O)N(CC)CC","-","EN300-07945","2733","3-amino-4-ethoxy-N,N-diethylbenzenesulfonamide","-","A55638","25489863","-","-","119.0 - 121.0","?C","120.0","Celsius"
"CCOC1=C(OC)C=C(C=C1)C(=O)NN","122772-33-2","EN300-07948","2735","4-ethoxy-3-methoxybenzohydrazide","-","A55638","25489863","-","-","161.0 - 163.0","?C","162.0","Celsius"
"CCCOC1=C(OC)C=C(C=C1)C(=O)NN","-","EN300-07950","2736","3-methoxy-4-propoxybenzohydrazide","-","A55638","25489863","-","-","146.0 - 148.0","?C","147.0","Celsius"
"COC(=O)C1=C(C=CC(Br)=C1)S(Cl)(=O)=O","-","EN300-07955","2738","methyl 5-bromo-2-(chlorosulfonyl)benzoate","-","A55638","25489863","-","-","66.0 - 70.0","?C","68.0","Celsius"
"CCOC1=C(N)C=C(C=C1)S(=O)(=O)N1CCOCC1","-","EN300-07960","2740","2-ethoxy-5-(morpholin-4-ylsulfonyl)aniline","-","A55638","25489863","-","-","165.0 - 167.0","?C","166.0","Celsius"
"COC1=CC(=CC=C1)C(=O)CC#N","21667-60-7","EN300-07961","2741","3-(3-methoxyphenyl)-3-oxopropanenitrile","-","A55638","25489863","-","-","84.0 - 86.0","?C","85.0","Celsius"
"CN(CC(=O)NC1=CC(=C(Cl)C=C1)C(F)(F)F)C(=O)CCl","-","EN300-07972","2742","2-chloro-N-(2-{[4-chloro-3-(trifluoromethyl)phenyl]amino}-2-oxoethyl)-N-methylacetamide","-","A55638","25489863","-","-","164.0 - 165.0","?C","164.0","Celsius"
"CC(Br)C(=O)C12CC3CC(CC(C3)C1)C2","26525-24-6","EN300-07975","2744","1-(1-adamantyl)-2-bromopropan-1-one","-","A55638","25489863","-","-","86.0 - 88.0","?C","87.0","Celsius"
"NC(=O)NC(CC(O)=O)C1=C(Cl)C=CC=C1","-","EN300-07977","2745","3-[(aminocarbonyl)amino]-3-(2-chlorophenyl)propanoic acid","-","A55638","25489863","-","-","163.0 - 165.0","?C","164.0","Celsius"
"OC(=O)CSC1=NN=C(N1CC1CCCO1)C1=CC=C(F)C=C1","-","EN300-07990","2748","{[5-(4-fluorophenyl)-4-(tetrahydrofuran-2-ylmethyl)-4H-1,2,4-triazol-3-yl]thio}acetic acid","-","A55638","25489863","-","-","131.0 - 133.0","?C","132.0","Celsius"
"ON1N=NC2=C1C=C(C=C2)C(O)=O","-","EN300-07995","2750","1-hydroxy-1H-1,2,3-benzotriazole-6-carboxylic acid","-","A55638","25489863","-","-","229.0 - 231.0","?C","230.0","Celsius"
"CCCOC1=C(OC)C=CC(C=O)=C1","5922-56-5","EN300-08002","2752","4-methoxy-3-propoxybenzaldehyde","-","A55638","25489863","-","-","35.0 - 37.0","?C","36.0","Celsius"
"OC1=CC(=CC=C1)N1C=NN=N1","-","EN300-08004","2753","3-(1H-tetrazol-1-yl)phenol","-","A55638","25489863","-","-","174.0 - 176.0","?C","175.0","Celsius"
"COC1=C(OCC(N)=O)C=C(C=O)C=C1","-","EN300-08006","2754","2-(5-formyl-2-methoxyphenoxy)acetamide","-","A55638","25489863","-","-","136.0 - 138.0","?C","137.0","Celsius"
"O=C1NCCS1","2682-49-7","EN300-08013","2756","1,3-thiazolidin-2-one","-","A55638","25489863","-","-","51.0 - 53.0","?C","52.0","Celsius"
"CC(N1CCCCC1)C1=NN=C(S)N1C1=CC=C(F)C=C1","-","EN300-08017","2757","4-(4-fluorophenyl)-5-(1-piperidin-1-ylethyl)-4H-1,2,4-triazole-3-thiol","-","A55638","25489863","-","-","115.0 - 117.0","?C","116.0","Celsius"
"CC(N(C)C)C1=NN=C(S)N1C1=CC=C(F)C=C1","-","EN300-08018","2758","5-[1-(dimethylamino)ethyl]-4-(4-fluorophenyl)-4H-1,2,4-triazole-3-thiol","-","A55638","25489863","-","-","169.0 - 171.0","?C","170.0","Celsius"
"OC(=O)C1=CNC(=O)N1","39828-47-2","EN300-08023","2759","2-Oxo-2,3-dihydro-1H-imidazole-4-carboxylic acid","-","A55638","25489863","-","-","232.0 - 236.0","?C","234.0","Celsius"
"NNC(=O)C1=NC2=C(C=CC=C2)C=C1","5382-44-5","EN300-08028","2764","quinoline-2-carbohydrazide","-","A55638","25489863","-","-","133.0 - 135.0","?C","134.0","Celsius"
"NC1=C(Br)C=C(C=C1)[N+]([O-])=O","13296-94-1","EN300-08034","2768","2-Bromo-4-nitroaniline","-","A55638","25489863","-","-","99.0 - 101.0","?C","100.0","Celsius"
"NC1=C(C=CC(=C1)C(F)(F)F)C(O)=O","402-13-1","EN300-08036","2769","2-amino-4-(trifluoromethyl)benzoic acid","-","A55638","25489863","-","-","175.0 - 176.0","?C","176.0","Celsius"
"NC1=CC=C(SC#N)C=C1","2987-46-4","EN300-08037","2770","4-aminophenyl thiocyanate","-","A55638","25489863","-","-","43.0 - 56.0","?C","49.5","Celsius"
"OC1=CC(NC=O)=CC=C1","24891-35-8","EN300-08038","2771","3-hydroxyphenylformamide","-","A55638","25489863","-","-","115.0 - 117.0","?C","116.0","Celsius"
"OC(=O)C1=C(NS(=O)(=O)C2=CC(=CC=C2)[N+]([O-])=O)C=CC=C1","-","EN300-08041","2772","2-{[(3-nitrophenyl)sulfonyl]amino}benzoic acid","-","A55638","25489863","-","-","185.0 - 187.0","?C","186.0","Celsius"
"OC(=O)C1=C(NS(=O)(=O)C2=CC(=CC=C2)C(F)(F)F)C=CC=C1","-","EN300-08044","2774","2-({[3-(trifluoromethyl)phenyl]sulfonyl}amino)benzoic acid","-","A55638","25489863","-","-","157.0 - 159.0","?C","158.0","Celsius"
"CC1=C(OCCCC(=O)NN)C=CC(Cl)=C1","-","EN300-08046","2775","4-(4-chloro-2-methylphenoxy)butanohydrazide","-","A55638","25489863","-","-","37.0 - 39.0","?C","38.0","Celsius"
"NC1=CC(=C(N)C=C1)S(=O)(=O)NC1=C(Cl)C=CC=C1","-","EN300-08049","2778","2,5-diamino-N-(2-chlorophenyl)benzenesulfonamide","-","A55638","25489863","-","-","213.0 - 215.0","?C","214.0","Celsius"
"CSC1=NSC(N)=N1","6913-13-9","EN300-08054","2779","3-(methylthio)-1,2,4-thiadiazol-5-amine","-","A55638","25489863","-","-","146.0 - 148.0","?C","147.0","Celsius"
"NNC1=NC2=C(C=CC=C2)C=C1","1013-22-5","EN300-08055","2780","2-Hydrazinoquinoline","-","A55638","25489863","-","-","147.0 - 151.0","?C","149.0","Celsius"
"CC1=C(C=C(C=C1)S(=O)(=O)N1CCCCC1)C(O)=O","-","EN300-08056","2781","2-methyl-5-(piperidin-1-ylsulfonyl)benzoic acid","-","A55638","25489863","-","-","197.0 - 199.0","?C","198.0","Celsius"
"FC1=C(F)C=C(C=C1)C1=C2C=CC=CC2=C(Cl)N=N1","-","EN300-08059","2782","1-chloro-4-(3,4-difluorophenyl)phthalazine","-","A55638","25489863","-","-","164.0 - 166.0","?C","165.0","Celsius"
"NC(=O)C1CCN(CC1)C(=O)CCl","375359-83-4","EN300-08063","2783","1-(chloroacetyl)piperidine-4-carboxamide","-","A55638","25489863","-","-","136.0 - 138.0","?C","137.0","Celsius"
"NNC(=O)C1=CC(=NN1)C1=CC=CC=C1","-","EN300-08064","2784","3-phenyl-1H-pyrazole-5-carbohydrazide","-","A55638","25489863","-","-","207.0 - 209.0","?C","208.0","Celsius"
"OC(=O)CN1N=NC(=N1)C1=CC=CC=C1","21743-68-0","EN300-08065","2785","(5-phenyl-2H-tetrazol-2-yl)acetic acid","-","A55638","25489863","-","-","180.0 - 182.0","?C","181.0","Celsius"
"CC(OC1=CC=C(Cl)C=C1)C(O)=O","3307-39-9","EN300-08066","2786","2-(4-CHLOROPHENOXY)PROPANOIC ACID","-","A55638","25489863","-","-","111.0 - 113.0","?C","112.0","Celsius"