"SMILES","CASRN","EXTERNALID","N","NAME","NAME","ARTICLEID","PUBMEDID","PAGE","TABLE","Melting Point {measured}","UNIT {Melting Point}","Melting Point {measured, converted}","UNIT {Melting Point}"
"CC1=CC=C(C=C1)C(=O)C1=C(N)SC2=C1CCC2","-","EN300-04863","1729","(2-Amino-5,6-dihydro-4H-cyclopenta[b]thiophen-3-yl)-p-tolyl-methanone","-","A55638","25489863","-","-","153.0 - 157.0","?C","155.0","Celsius"
"COC(=O)C1=CC=C(C=C1)N1C(C)=CC(C(=O)CCl)=C1C","-","EN300-04869","1730","4-[3-(2-Chloro-acetyl)-2,5-dimethyl-pyrrol-1-yl]-benzoic acid methyl ester","-","A55638","25489863","-","-","157.0 - 159.0","?C","158.0","Celsius"
"COC1=C(C=C(C=C1)S(Cl)(=O)=O)[N+]([O-])=O","22117-79-9","EN300-04870","1731","4-Methoxy-3-nitro-benzenesulfonyl chloride","-","A55638","25489863","-","-","58.0 - 60.0","?C","59.0","Celsius"
"CCCCN1C(=O)C(CCC(O)=O)=NC2=C1C=CC=C2","-","EN300-04874","1732","3-(4-Butyl-3-oxo-3,4-dihydro-quinoxalin-2-yl)-propionic acid","-","A55638","25489863","-","-","146.0 - 148.0","?C","147.0","Celsius"
"CCN1C(N)=NC2=C1C=CC=C2","1622-58-8","EN300-04876","1733","1-Ethyl-1H-benzoimidazol-2-ylamine","-","A55638","25489863","-","-","152.0 - 154.0","?C","153.0","Celsius"
"COC1=CC=C(NCCC(O)=O)C=C1","178425-91-7","EN300-04879","1734","3-(4-Methoxy-phenylamino)-propionic acid","-","A55638","25489863","-","-","82.0 - 84.0","?C","83.0","Celsius"
"CC1=C(C#N)C2=NC3=C(C=CC=C3)N2C(Cl)=C1","121105-78-0","EN300-04882","1735","1-Chloro-3-methyl-benzo[4,5]imidazo[1,2-a]pyridine-4-carbonitrile","-","A55638","25489863","-","-","210.0 - 212.0","?C","211.0","Celsius"
"CCOC1=C(Cl)C=C(C=C1)C1=NN(C=C1C=O)C1=CC=CC=C1","-","EN300-04885","1736","3-(3-Chloro-4-ethoxy-phenyl)-1-phenyl-1H-pyrazole-4-carbaldehyde","-","A55638","25489863","-","-","100.0 - 102.0","?C","101.0","Celsius"
"CC1=CC(=CC(C)=C1)N(CCC(O)=O)S(=O)(=O)C1=CC=C(Br)C=C1","-","EN300-04887","1737","3-[(4-Bromo-benzenesulfonyl)-(3,5-dimethyl-phenyl)-amino]-propionic acid","-","A55638","25489863","-","-","133.0 - 135.0","?C","134.0","Celsius"
"CCN(CC)S(=O)(=O)C1=CC=C(C=C1)C(C)=O","1658-97-5","EN300-04891","1738","4-Acetyl-N,N-diethyl-benzenesulfonamide","-","A55638","25489863","-","-","81.0 - 83.0","?C","82.0","Celsius"
"COC1=C(OC)C=C(C=C1)C1(C)NC(=O)NC1=O","-","EN300-04895","1739","5-(3,4-Dimethoxy-phenyl)-5-methyl-imidazolidine-2,4-dione","-","A55638","25489863","-","-","177.0 - 179.0","?C","178.0","Celsius"
"CN1N=C(C(=O)NN)C2=C(C=CC=C2)C1=O","99072-87-4","EN300-04897","1740","3-Methyl-4-oxo-3,4-dihydro-phthalazine-1-carboxylic acid hydrazide","-","A55638","25489863","-","-","134.0 - 136.0","?C","135.0","Celsius"
"O=C1NC(=O)C2(CCOC3=C2C=CC=C3)N1","-","EN300-04900","1741","2,3-dihydro-2'H,5'H-spiro[chromene-4,4'-imidazolidine]-2',5'-dione","-","A55638","25489863","-","-","120.0 - 122.0","?C","121.0","Celsius"
"CC(=O)C1=CC=C(OCC#N)C=C1","-","EN300-04902","1742","(4-Acetyl-phenoxy)-acetonitrile","-","A55638","25489863","-","-","82.0 - 84.0","?C","83.0","Celsius"
"CC1(NC(=O)NC1=O)C1=CC=C(OC(F)F)C=C1","-","EN300-04904","1743","5-(4-Difluoromethoxy-phenyl)-5-methyl-imidazolidine-2,4-dione","-","A55638","25489863","-","-","141.0 - 143.0","?C","142.0","Celsius"
"CC1=CC(=C(C)C=C1)S(=O)(=O)N1CCNCC1","-","EN300-04905","1744","1-(2,5-Dimethyl-benzenesulfonyl)-piperazine","-","A55638","25489863","-","-","108.0 - 110.0","?C","109.0","Celsius"
"CC1=CC(C(=O)CCl)=C(C)N1CC=C","-","EN300-04908","1745","1-(1-Allyl-2,5-dimethyl-1H-pyrrol-3-yl)-2-chloro-ethanone","-","A55638","25489863","-","-","36.0 - 40.0","?C","38.0","Celsius"
"COC1=C(N)C=C(C=C1)S(=O)(=O)N(C)C","-","EN300-04917","1746","3-Amino-4-methoxy-N,N-dimethyl-benzenesulfonamide","-","A55638","25489863","-","-","192.0 - 194.0","?C","193.0","Celsius"
"COC1=C(OCC#N)C=CC(C=CC(O)=O)=C1","-","EN300-04919","1747","3-(4-Cyanomethoxy-3-methoxy-phenyl)-acrylic acid","-","A55638","25489863","-","-","164.0 - 166.0","?C","165.0","Celsius"
"CC1=C(OC2=C1C=CC=C2Cl)C(O)=O","32565-18-7","EN300-04920","1748","7-Chloro-3-methyl-benzofuran-2-carboxylic acid","-","A55638","25489863","-","-","229.0 - 231.0","?C","230.0","Celsius"
"CCCC1=CC=C(C=C1)C(=O)COC1=C(OC)C=C(C=O)C=C1","-","EN300-04921","1749","3-Methoxy-4-[2-oxo-2-(4-propyl-phenyl)-ethoxy]-benzaldehyde","-","A55638","25489863","-","-","73.0 - 75.0","?C","74.0","Celsius"
"CCOC(=O)C1=C(C)C2=C(O1)C(Cl)=CC=C2","32565-17-6","EN300-04922","1750","7-Chloro-3-methyl-benzofuran-2-carboxylic acid ethyl ester","-","A55638","25489863","-","-","63.0 - 65.0","?C","64.0","Celsius"
"COC1=CC2=C(OC(C(O)=O)=C2C)C=C1","81718-77-6","EN300-04923","1751","5-Methoxy-3-methyl-benzofuran-2-carboxylic acid","-","A55638","25489863","-","-","202.0 - 204.0","?C","203.0","Celsius"
"CCOC(=O)C1=C(C)C2=C(O1)C=CC(OC)=C2","3710-50-7","EN300-04924","1752","5-Methoxy-3-methyl-benzofuran-2-carboxylic acid ethyl ester","-","A55638","25489863","-","-","103.0 - 105.0","?C","104.0","Celsius"
"CN(C)S(=O)(=O)C1=CC=C(C=C1)C(C)=O","60000-87-5","EN300-04925","1753","4-Acetyl-N,N-dimethyl-benzenesulfonamide","-","A55638","25489863","-","-","99.0 - 101.0","?C","100.0","Celsius"
"BrC1=CC(=C(Br)C=C1)S(=O)(=O)CC#N","-","EN300-04929","1754","(2,5-Dibromo-benzenesulfonyl)-acetonitrile","-","A55638","25489863","-","-","134.0 - 136.0","?C","135.0","Celsius"
"OC(=O)CCNC1=CC=CC=C1","5652-38-0","EN300-04934","1755","3-Phenylamino-propionic acid","-","A55638","25489863","-","-","56.0 - 60.0","?C","58.0","Celsius"
"OC(=O)CCC(=O)C1=CC=C(I)C=C1","194146-02-6","EN300-04939","1756","4-(4-Iodo-phenyl)-4-oxo-butyric acid","-","A55638","25489863","-","-","175.0 - 177.0","?C","176.0","Celsius"
"CC(C)C1=CC=C(C=C1)S(=O)(=O)C1=CC=C(NN)C=C1","-","EN300-04943","1757","[4-(4-Isopropyl-benzenesulfonyl)-phenyl]-hydrazine","-","A55638","25489863","-","-","191.0 - 193.0","?C","192.0","Celsius"
"NNC1=C(Cl)C=C(Cl)C=N1","104408-23-3","EN300-04951","1758","(3,5-Dichloro-pyridin-2-yl)-hydrazine","-","A55638","25489863","-","-","179.0 - 181.0","?C","180.0","Celsius"
"COC1=CC(NCCC#N)=CC=C1","26424-07-7","EN300-04953","1759","3-(3-Methoxy-phenylamino)-propionitrile","-","A55638","25489863","-","-","81.0 - 83.0","?C","82.0","Celsius"
"CC(=O)NC1=CC=C(C=C1)N1C(=O)C2=C(C=C(C=C2)C(O)=O)C1=O","-","EN300-04956","1761","2-(4-Acetylamino-phenyl)-1,3-dioxo-2,3-dihydro-1H-isoindole-5-carboxylic acid","-","A55638","25489863","-","-","379.0 - 381.0","?C","380.0","Celsius"
"CCOC1=CC=C(C=C1)N1C(=O)C2=C(C=C(C=C2)C(O)=O)C1=O","-","EN300-04959","1762","2-(4-Ethoxy-phenyl)-1,3-dioxo-2,3-dihydro-1H-isoindole-5-carboxylic acid","-","A55638","25489863","-","-","265.0 - 267.0","?C","266.0","Celsius"
"OC(=O)C(CC1=CNC2=C1C=CC=C2)NC(=O)CCl","64709-57-5","EN300-04964","1763","2-(2-Chloro-acetylamino)-3-(1H-indol-3-yl)-propionic acid","-","A55638","25489863","-","-","153.0 - 155.0","?C","154.0","Celsius"
"CC1=NC2=C(C=CC(=C2)C(O)=O)N1C1=CC=CC=C1","92437-43-9","EN300-04968","1764","2-Methyl-1-phenyl-1H-benzoimidazole-5-carboxylic acid","-","A55638","25489863","-","-","210.0 - 212.0","?C","211.0","Celsius"
"OC1=CC(O)=C(C=C1)C(=O)CCl","25015-92-3","EN300-04971","1765","2-Chloro-1-(2,4-dihydroxy-phenyl)-ethanone","-","A55638","25489863","-","-","108.0 - 110.0","?C","109.0","Celsius"
"CCOC1=C(OC)C=C(C=O)C=C1Br","90109-65-2","EN300-04975","1766","3-Bromo-4-ethoxy-5-methoxy-benzaldehyde","-","A55638","25489863","-","-","84.0 - 86.0","?C","85.0","Celsius"
"CC1=C(C=CC=C1)N1C(=O)C2=C(C=C(C=C2)C(O)=O)C1=O","-","EN300-04979","1767","1,3-Dioxo-2-o-tolyl-2,3-dihydro-1H-isoindole-5-carboxylic acid","-","A55638","25489863","-","-","234.0 - 236.0","?C","235.0","Celsius"
"CC1=NN(C(C)=C1)C1=NC(C(O)=O)=C(Cl)C=C1","-","EN300-04980","1768","3-Chloro-6-(3,5-dimethyl-pyrazol-1-yl)-pyridine-2-carboxylic acid","-","A55638","25489863","-","-","184.0 - 186.0","?C","185.0","Celsius"
"SC1=NN=C(O1)C1=NN(CC2=CC=CC=C2)C(=O)C2=C1C=CC=C2","-","EN300-04983","1770","2-Benzyl-4-(5-mercapto-[1,3,4]oxadiazol-2-yl)-2H-phthalazin-1-one","-","A55638","25489863","-","-","238.0 - 242.0","?C","240.0","Celsius"
"COC1=CC=C(C=C1)C1=NN=C(O1)SCC(O)=O","84160-41-8","EN300-04986","1771","[5-(4-Methoxy-phenyl)-[1,3,4]oxadiazol-2-ylsulfanyl]-acetic acid","-","A55638","25489863","-","-","140.0 - 143.0","?C","142.0","Celsius"
"CN1C=NN=C1SCC(=O)NC1=CC(=CC=C1)C(O)=O","-","EN300-04989","1772","3-[2-(4-Methyl-4H-[1,2,4]triazol-3-ylsulfanyl)-acetylamino]-benzoic acid","-","A55638","25489863","-","-","231.0 - 233.0","?C","232.0","Celsius"
"CC1=CC=CC(C)=C1NC1=NN=C(SCC(O)=O)S1","-","EN300-04991","1773","[5-(2,6-Dimethyl-phenylamino)-[1,3,4]thiadiazol-2-ylsulfanyl]-acetic acid","-","A55638","25489863","-","-","207.0 - 209.0","?C","208.0","Celsius"
"FC(F)(F)C1=CC(NC(=O)C2=CC(NC(=O)CCl)=CC=C2)=CC=C1","-","EN300-04994","1774","3-(2-Chloro-acetylamino)-N-(3-trifluoromethyl-phenyl)-benzamide","-","A55638","25489863","-","-","197.0 - 199.0","?C","198.0","Celsius"
"ON=CC(=O)NC1=CC(=CC=C1)C(F)(F)F","404-83-1","EN300-04997","1775","2-Hydroxyimino-N-(3-trifluoromethyl-phenyl)-acetamide","-","A55638","25489863","-","-","115.0 - 117.0","?C","116.0","Celsius"
"CC1=CC(NC(=O)CCl)=NO1","59826-53-8","EN300-04999","1776","2-Chloro-N-(5-methyl-isoxazol-3-yl)-acetamide","-","A55638","25489863","-","-","182.0 - 190.0","?C","186.0","Celsius"
"COC1=C(OC)C=C(C=C1)C(=O)CBr","1835-02-5","EN300-05000","1777","2-Bromo-1-(3,4-dimethoxy-phenyl)-ethanone","-","A55638","25489863","-","-","83.0 - 85.0","?C","84.0","Celsius"
"CC1=NC(CC(=O)NN)=CS1","496057-29-5","EN300-05009","1778","(2-Methyl-thiazol-4-yl)-acetic acid hydrazide","-","A55638","25489863","-","-","114.0 - 116.0","?C","115.0","Celsius"
"ClS(=O)(=O)C1=CC2=C(NC(=O)N2)C=C1","53439-87-5","EN300-05011","1779","2-Oxo-2,3-dihydro-1H-benzoimidazole-5-sulfonyl chloride","-","A55638","25489863","-","-","210.0 - 212.0","?C","211.0","Celsius"
"CN1C(=O)N(C)C(=O)C(C(=O)CC#N)=C1N","112735-05-4","EN300-05012","1780","3-(6-Amino-1,3-dimethyl-2,4-dioxo-1,2,3,4-tetrahydro-pyrimidin-5-yl)-3-oxo-propionitrile","-","A55638","25489863","-","-","260.0 - 262.0","?C","261.0","Celsius"
"CC1=CC=C(NC(=O)C=NO)C=C1","1132-40-7","EN300-05016","1781","2-Hydroxyimino-N-p-tolyl-acetamide","-","A55638","25489863","-","-","145.0 - 147.0","?C","146.0","Celsius"
"CCOC(=O)C1=C(N)C=C(S1)C1=CC=CC=C1","88534-50-3","EN300-05019","1782","3-Amino-5-phenyl-thiophene-2-carboxylic acid ethyl ester","-","A55638","25489863","-","-","101.0 - 103.0","?C","102.0","Celsius"
"CCOC(=O)C1=C(N)C=C(S1)C1=CC=C(Br)C=C1","91076-96-9","EN300-05020","1783","3-Amino-5-(4-bromo-phenyl)-thiophene-2-carboxylic acid ethyl ester","-","A55638","25489863","-","-","105.0 - 106.0","?C","106.0","Celsius"
"NNC(=O)C1=NNC(=O)C2=C1C=CC=C2","61051-67-0","EN300-05025","1784","4-Oxo-3,4-dihydro-phthalazine-1-carboxylic acid hydrazide","-","A55638","25489863","-","-","239.0 - 241.0","?C","240.0","Celsius"
"COC(=O)C1=CC=C(NC(=O)CCCCl)C=C1","-","EN300-05033","1786","4-(4-Chloro-butyrylamino)-benzoic acid methyl ester","-","A55638","25489863","-","-","128.0 - 130.0","?C","129.0","Celsius"
"CCOC(=O)C1=C(C)C2=C(O1)C=CC(Br)=C2","-","EN300-05036","1787","5-Bromo-3-methyl-benzofuran-2-carboxylic acid ethyl ester","-","A55638","25489863","-","-","89.0 - 91.0","?C","90.0","Celsius"
"CCOC(=O)C1=C(CBr)C2=C(O1)C=CC=C2","29115-34-2","EN300-05038","1788","3-Bromomethyl-benzofuran-2-carboxylic acid ethyl ester","-","A55638","25489863","-","-","77.0 - 79.0","?C","78.0","Celsius"
"CC1=C(OC2=C1C=C(Br)C=C2)C(O)=O","50638-08-9","EN300-05039","1789","5-Bromo-3-methyl-benzofuran-2-carboxylic acid","-","A55638","25489863","-","-","249.0 - 251.0","?C","250.0","Celsius"
"CCOC(=O)C1=C(CBr)C2=C(O1)C=CC(Br)=C2","-","EN300-05040","1790","5-Bromo-3-bromomethyl-benzofuran-2-carboxylic acid ethyl ester","-","A55638","25489863","-","-","132.0 - 134.0","?C","133.0","Celsius"
"OC(=O)C1=CC=C(COC2=CC=CC=C2)C=C1","31719-76-3","EN300-05041","1791","4-Phenoxymethyl-benzoic acid","-","A55638","25489863","-","-","214.0 - 216.0","?C","215.0","Celsius"
"OC(=O)C1CCCCC1C(=O)N1CCC2=C1C=CC=C2","-","EN300-05042","1792","2-(2,3-Dihydro-indole-1-carbonyl)-cyclohexanecarboxylic acid","-","A55638","25489863","-","-","123.0 - 125.0","?C","124.0","Celsius"
"CCS(=O)(=O)C1=CC2=C(OC(S)=N2)C=C1","-","EN300-05043","1793","5-Ethanesulfonyl-benzooxazole-2-thiol","-","A55638","25489863","-","-","188.0 - 190.0","?C","189.0","Celsius"
"NC1=NC2=C(C=CC=C2)N2N=NN=C12","61148-29-6","EN300-05045","1794","1,2,3,5,9b-Pentaaza-cyclopenta[a]naphthalen-4-ylamine","-","A55638","25489863","-","-","289.0 - 291.0","?C","290.0","Celsius"
"ClCN1C(=O)C2=C(C=CC=C2)S1(=O)=O","13947-21-2","EN300-05051","1795","2-Chloromethyl-1,1-dioxo-1,2-dihydro-1lambda*6*-benzo[d]isothiazol-3-one","-","A55638","25489863","-","-","145.0 - 147.0","?C","146.0","Celsius"
"SC1=NN=C2N1C=C(Cl)C=C2Cl","-","EN300-05052","1796","6,8-Dichloro-[1,2,4]triazolo[4,3-a]pyridine-3-thiol","-","A55638","25489863","-","-","257.0 - 259.0","?C","258.0","Celsius"
"CN(C)S(=O)(=O)C1=CC(C(O)=O)=C(Cl)C=C1","37088-27-0","EN300-05054","1797","2-Chloro-5-dimethylsulfamoyl-benzoic acid","-","A55638","25489863","-","-","181.0 - 183.0","?C","182.0","Celsius"
"CC1=CC(C(=O)CCl)=C(C)C=C1","50690-11-4","EN300-05057","1798","2-Chloro-1-(2,5-dimethyl-phenyl)-ethanone","-","A55638","25489863","-","-","28.0 - 30.0","?C","29.0","Celsius"
"ClCC(=O)C1=CC=C(C=C1)C1CCCCC1","72825-30-0","EN300-05060","1799","2-Chloro-1-(4-cyclohexyl-phenyl)-ethanone","-","A55638","25489863","-","-","182.0 - 187.0","?C","184.0","Celsius"
"FC(F)SC1=CC=C(NC2=NN=C(S)S2)C=C1","-","EN300-05064","1800","5-(4-Difluoromethylsulfanyl-phenylamino)-[1,3,4]thiadiazole-2-thiol","-","A55638","25489863","-","-","188.0 - 190.0","?C","189.0","Celsius"
"[O-][N+](=O)C1=C(C=CC=C1)S(=O)(=O)N1CCNCC1","301331-16-8","EN300-05066","1801","1-(2-Nitro-benzenesulfonyl)-piperazine","-","A55638","25489863","-","-","147.0 - 149.0","?C","148.0","Celsius"
"CS(=O)(=O)C1=C(C=C(C=C1)C(O)=O)[N+]([O-])=O","-","EN300-05068","1802","4-Methanesulfonyl-3-nitro-benzoic acid","-","A55638","25489863","-","-","274.0 - 276.0","?C","275.0","Celsius"
"OC(=O)CC1=CSC(=N1)C1=CC=CC=C1","16441-28-4","EN300-05070","1803","(2-Phenyl-thiazol-4-yl)-acetic acid","-","A55638","25489863","-","-","89.0 - 91.0","?C","90.0","Celsius"
"CC(=O)NC1=CC(=CC(NC(C)=O)=C1)C(O)=O","7743-39-7","EN300-05071","1804","3,5-Bis-acetylamino-benzoic acid","-","A55638","25489863","-","-","187.0 - 189.0","?C","188.0","Celsius"
"COCC(C)N1C(C)=CC(C(=O)CCl)=C1C","-","EN300-05077","1805","2-Chloro-1-[1-(2-methoxy-1-methyl-ethyl)-2,5-dimethyl-1H-pyrrol-3-yl]-ethanone","-","A55638","25489863","-","-","240.0 - 242.0","?C","241.0","Celsius"
"COC(=O)C1=C(C)C2=C(S1)N=C(CCl)NC2=O","-","EN300-05082","1806","2-Chloromethyl-5-methyl-4-oxo-3,4-dihydro-thieno[2,3-d]pyrimidine-6-carboxylic acid methyl ester","-","A55638","25489863","-","-","276.0 - 278.0","?C","277.0","Celsius"
"CC1=CC(C(=O)CCl)=C(C)N1CC1=CC=CS1","-","EN300-05084","1807","2-Chloro-1-(2,5-dimethyl-1-thiophen-2-ylmethyl-1H-pyrrol-3-yl)-ethanone","-","A55638","25489863","-","-","83.0 - 85.0","?C","84.0","Celsius"
"OC(=O)C1=C(I)C(Cl)=CC(Cl)=C1","15396-37-9","EN300-05085","1808","3,5-Dichloro-2-iodo-benzoic acid","-","A55638","25489863","-","-","173.0 - 175.0","?C","174.0","Celsius"
"CC1CC(C)CN(C1)S(=O)(=O)C1=CC=C(N)C=C1","-","EN300-05086","1809","4-(3,5-Dimethyl-piperidine-1-sulfonyl)-phenylamine","-","A55638","25489863","-","-","157.0 - 159.0","?C","158.0","Celsius"
"CN1C=CN=C1C(=O)C1=C(Cl)C=CC=C1","30148-26-6","EN300-05087","1810","(2-Chloro-phenyl)-(1-methyl-1H-imidazol-2-yl)-methanone","-","A55638","25489863","-","-","99.0 - 101.0","?C","100.0","Celsius"
"COC1=CC=C(C=C1)S(=O)(=O)N(C)C1=CC=C(O)C=C1","-","EN300-05088","1811","N-(4-Hydroxy-phenyl)-4-methoxy-N-methyl-benzenesulfonamide","-","A55638","25489863","-","-","88.0 - 90.0","?C","89.0","Celsius"
"NC(=O)CC(NC(=O)C1=C(Cl)C=CC=C1)C(O)=O","-","EN300-05094","1812","2-(2-Chloro-benzoylamino)-succinamic acid","-","A55638","25489863","-","-","190.0 - 192.0","?C","191.0","Celsius"
"OC(=O)CSC1=NN=C(O1)C1=CC=CC=C1","99361-50-9","EN300-05096","1813","(5-Phenyl-[1,3,4]oxadiazol-2-ylsulfanyl)-acetic acid","-","A55638","25489863","-","-","169.0 - 171.0","?C","170.0","Celsius"
"OC(=O)C1=C(NC(=O)C2=CC=CS2)C=C(Cl)C=C1","-","EN300-05097","1814","4-Chloro-2-[(thiophene-2-carbonyl)-amino]-benzoic acid","-","A55638","25489863","-","-","267.0 - 269.0","?C","268.0","Celsius"
"CC1=NN(C2=C1C=C(S2)C(O)=O)C1=CC(Cl)=CC=C1","-","EN300-05098","1815","1-(3-Chloro-phenyl)-3-methyl-1H-thieno[2,3-c]pyrazole-5-carboxylic acid","-","A55638","25489863","-","-","268.0 - 270.0","?C","269.0","Celsius"
"NC1=NC(=CS1)C1=CC=C(C=C1)C1CCCCC1","105512-86-5","EN300-05103","1817","4-(4-Cyclohexyl-phenyl)-thiazol-2-ylamine","-","A55638","25489863","-","-","227.0 - 229.0","?C","228.0","Celsius"
"ClCC1=NN=C(O1)C1=C(Br)C=CC=C1","-","EN300-05104","1818","2-(2-Bromo-phenyl)-5-chloromethyl-[1,3,4]oxadiazole","-","A55638","25489863","-","-","104.0 - 107.0","?C","106.0","Celsius"
"[O-][N+](=O)C1=CC=C(C=C1)C1=NN=C(CCl)O1","50677-30-0","EN300-05105","1819","2-Chloromethyl-5-(4-nitro-phenyl)-[1,3,4]oxadiazole","-","A55638","25489863","-","-","128.0 - 130.0","?C","129.0","Celsius"
"OC(=O)C1CC2=C(CN1C(=O)C1=CC=CO1)C=CC=C2","-","EN300-05108","1820","2-(Furan-2-carbonyl)-1,2,3,4-tetrahydro-isoquinoline-3-carboxylic acid","-","A55638","25489863","-","-","143.0 - 147.0","?C","145.0","Celsius"
"OC(=O)C1=C(NC(=O)CCl)C=C(Cl)C=C1","-","EN300-05109","1821","4-Chloro-2-(2-chloro-acetylamino)-benzoic acid","-","A55638","25489863","-","-","152.0 - 154.0","?C","153.0","Celsius"
"CCCCN1C(=O)NC(=O)C(NC2CCCC2)=C1N","-","EN300-05112","1822","6-Amino-1-butyl-5-cyclopentylamino-1H-pyrimidine-2,4-dione","-","A55638","25489863","-","-","250.0 - 252.0","?C","251.0","Celsius"
"CCCCN1C(=O)NC(=O)C(NCC2=C(OC)C=CC=C2)=C1N","-","EN300-05113","1823","6-Amino-1-butyl-5-(2-methoxy-benzylamino)-1H-pyrimidine-2,4-dione","-","A55638","25489863","-","-","198.0 - 200.0","?C","199.0","Celsius"
"BrC1=CC2=C(C=C1)N=CNC2=O","32084-59-6","EN300-05116","1824","6-Bromo-3H-quinazolin-4-one","-","A55638","25489863","-","-","267.0 - 271.0","?C","269.0","Celsius"
"OC(=O)CNC1=NS(=O)(=O)C2=C1C=CC=C2","71054-77-8","EN300-05118","1825","(1,1-Dioxo-1H-1lambda*6*-benzo[d]isothiazol-3-ylamino)-acetic acid","-","A55638","25489863","-","-","160.0 - 162.0","?C","161.0","Celsius"
"CCC1(NC(=O)NC1=O)C1=CC(Cl)=CC=C1","-","EN300-05120","1826","5-(3-Chloro-phenyl)-5-ethyl-imidazolidine-2,4-dione","-","A55638","25489863","-","-","159.0 - 161.0","?C","160.0","Celsius"
"NC1=C(C(=O)N2CCOCC2)C2=C(CCCC2)S1","-","EN300-05121","1827","(2-Amino-4,5,6,7-tetrahydro-benzo[b]thiophen-3-yl)-morpholin-4-yl-methanone","-","A55638","25489863","-","-","90.0 - 92.0","?C","91.0","Celsius"
"OC1=CC2=C(C=C1)C1=C(CCC1)C(=O)O2","21260-41-3","EN300-05124","1828","7-Hydroxy-2,3-dihydro-1H-cyclopenta[c]chromen-4-one","-","A55638","25489863","-","-","214.0 - 216.0","?C","215.0","Celsius"
"CC1CCCC(C)N1C(=O)COC1=CC=C(C=C1)C(O)=O","-","EN300-05131","1829","4-[2-(2,6-Dimethyl-piperidin-1-yl)-2-oxo-ethoxy]-benzoic acid","-","A55638","25489863","-","-","205.0 - 215.0","?C","210.0","Celsius"
"NC1=C(C(=O)NCC2=CC=CC=C2)C2=C(CCCC2)S1","-","EN300-05141","1830","2-Amino-4,5,6,7-tetrahydro-benzo[b]thiophene-3-carboxylic acid benzylamide","-","A55638","25489863","-","-","112.0 - 114.0","?C","113.0","Celsius"
"NC1=CC(=C(F)C=C1)S(=O)(=O)N1CCOCC1","-","EN300-05149","1831","4-Fluoro-3-(morpholine-4-sulfonyl)-phenylamine","-","A55638","25489863","-","-","128.0 - 130.0","?C","129.0","Celsius"
"OC(=O)C1=CC(NS(=O)(=O)C2=CC=C(F)C=C2)=C(Cl)C=C1","-","EN300-05157","1832","4-Chloro-3-(4-fluoro-benzenesulfonylamino)-benzoic acid","-","A55638","25489863","-","-","211.0 - 213.0","?C","212.0","Celsius"
"CC1(C)C2CCC1(C)C(C2)=NNC(=O)CCl","29118-71-6","EN300-05161","1833","Chloro-acetic acid (1,7,7-trimethyl-bicyclo[2.2.1]hept-2-ylidene)-hydrazide","-","A55638","25489863","-","-","185.0 - 187.0","?C","186.0","Celsius"
"OC(=O)CCOC1=CC(Br)=CC=C1","18386-03-3","EN300-05169","1834","3-(3-Bromo-phenoxy)-propionic acid","-","A55638","25489863","-","-","60.0 - 69.0","?C","64.5","Celsius"