"SMILES","CASRN","EXTERNALID","N","NAME","NAME","ARTICLEID","PUBMEDID","PAGE","TABLE","Melting Point {measured}","UNIT {Melting Point}","Melting Point {measured, converted}","UNIT {Melting Point}"
"CC1=CC(C)=C(NS(=O)(=O)C2=CC(=C(NN)C=C2)[N+]([O-])=O)C=C1","-","EN300-03559","1276","N-(2,4-Dimethyl-phenyl)-4-hydrazino-3-nitro-benzenesulfonamide","-","A55638","25489863","-","-","215.0 - 217.0","?C","216.0","Celsius"
"COC1=CC=C(NS(=O)(=O)C2=CC(=C(NN)C=C2)[N+]([O-])=O)C=C1","-","EN300-03560","1277","4-Hydrazino-N-(4-methoxy-phenyl)-3-nitro-benzenesulfonamide","-","A55638","25489863","-","-","204.0 - 206.0","?C","205.0","Celsius"
"COC1=C(NS(=O)(=O)C2=CC(=C(NN)C=C2)[N+]([O-])=O)C=CC=C1","-","EN300-03562","1278","4-Hydrazino-N-(2-methoxy-phenyl)-3-nitro-benzenesulfonamide","-","A55638","25489863","-","-","181.0 - 183.0","?C","182.0","Celsius"
"NNC1=C(C=C(C=C1)S(=O)(=O)NC1=CC(Cl)=CC=C1)[N+]([O-])=O","-","EN300-03565","1279","N-(3-Chloro-phenyl)-4-hydrazino-3-nitro-benzenesulfonamide","-","A55638","25489863","-","-","195.0 - 197.0","?C","196.0","Celsius"
"NNC1=C(C=C(C=C1)S(=O)(=O)NC1=CC=C(Cl)C=C1)[N+]([O-])=O","-","EN300-03566","1280","N-(4-Chloro-phenyl)-4-hydrazino-3-nitro-benzenesulfonamide","-","A55638","25489863","-","-","187.0 - 189.0","?C","188.0","Celsius"
"NNC1=C(C=C(C=C1)[N+]([O-])=O)S(=O)(=O)NC1=C(Cl)C=CC=C1","-","EN300-03567","1281","N-(2-Chloro-phenyl)-2-hydrazino-5-nitro-benzenesulfonamide","-","A55638","25489863","-","-","220.0 - 229.0","?C","224.0","Celsius"
"CCOC1=CC=C(C=C1)S(=O)(=O)NN","24924-80-9","EN300-03570","1282","4-ethoxybenzenesulfonohydrazide","-","A55638","25489863","-","-","114.0 - 116.0","?C","115.0","Celsius"
"NNC(=O)C1=CC(=CC=C1)S(=O)(=O)N1CCCC1","-","EN300-03573","1283","3-(Pyrrolidine-1-sulfonyl)-benzoic acid hydrazide","-","A55638","25489863","-","-","153.0 - 155.0","?C","154.0","Celsius"
"CCN(CC)S(=O)(=O)C1=CC(=CC=C1)C(=O)NN","96134-80-4","EN300-03575","1284","N,N-Diethyl-3-hydrazinocarbonyl-benzenesulfonamide","-","A55638","25489863","-","-","133.0 - 135.0","?C","134.0","Celsius"
"NNC(=O)C1=CC(=CC=C1)S(=O)(=O)N1CCOCC1","-","EN300-03577","1285","3-(Morpholine-4-sulfonyl)-benzoic acid hydrazide","-","A55638","25489863","-","-","140.0 - 142.0","?C","141.0","Celsius"
"NNC(=O)C1=CC(=CC=C1)S(=O)(=O)NC1=CC=C(Cl)C=C1","-","EN300-03580","1286","N-(4-Chloro-phenyl)-3-hydrazinocarbonyl-benzenesulfonamide","-","A55638","25489863","-","-","191.0 - 193.0","?C","192.0","Celsius"
"NNC(=O)C1COC2=C(O1)C=CC=C2","90557-92-9","EN300-03584","1287","2,3-Dihydro-benzo[1,4]dioxine-2-carboxylic acid hydrazide","-","A55638","25489863","-","-","111.0 - 113.0","?C","112.0","Celsius"
"NNC(=O)CCN1CCN(CC1)C1=CC=CC=C1","-","EN300-03590","1288","3-(4-Phenyl-piperazin-1-yl)-propionic acid hydrazide","-","A55638","25489863","-","-","120.0 - 122.0","?C","121.0","Celsius"
"CN1CCN(CCC(=O)NN)CC1","24636-93-9","EN300-03591","1289","3-(4-Methyl-piperazin-1-yl)-propionic acid hydrazide","-","A55638","25489863","-","-","87.0 - 89.0","?C","88.0","Celsius"
"CC1=NC2=C(C(=CS2)C2=CC=CC=C2)C(=O)N1N","43088-51-3","EN300-03607","1290","3-Amino-2-methyl-5-phenyl-3H-thieno[2,3-d]pyrimidin-4-one","-","A55638","25489863","-","-","134.0 - 136.0","?C","135.0","Celsius"
"NNC1=NC2=C(N1)C=CC=C2","15108-18-6","EN300-03610","1292","(1H-Benzoimidazol-2-yl)-hydrazine","-","A55638","25489863","-","-","80.0 - 82.0","?C","81.0","Celsius"
"CC1=C(C)C2=C(S1)N=CN=C2NN","63894-54-2","EN300-03614","1293","(5,6-Dimethyl-thieno[2,3-d]pyrimidin-4-yl)-hydrazine","-","A55638","25489863","-","-","208.0 - 210.0","?C","209.0","Celsius"
"NNC1=C(C=C(C=C1[N+]([O-])=O)C(F)(F)F)[N+]([O-])=O","2002-68-8","EN300-03620","1294","(2,6-Dinitro-4-trifluoromethyl-phenyl)-hydrazine","-","A55638","25489863","-","-","129.0 - 131.0","?C","130.0","Celsius"
"CC1=NC(NN)=NC(O)=C1","37893-08-6","EN300-03622","1295","2-Hydrazino-6-methyl-pyrimidin-4-ol","-","A55638","25489863","-","-","213.0 - 215.0","?C","214.0","Celsius"
"CC1=C(Cl)C=CC(OCC2=CC=C(C=C2)C(=O)NN)=C1","-","EN300-03623","1296","4-(4-Chloro-3-methyl-phenoxymethyl)-benzoic acid hydrazide","-","A55638","25489863","-","-","78.0 - 80.0","?C","79.0","Celsius"
"CCN1C(C)=NC2=C1C=CC(=C2)C(=O)NN","-","EN300-03625","1297","1-Ethyl-2-methyl-1H-benzoimidazole-5-carboxylic acid hydrazide","-","A55638","25489863","-","-","183.0 - 185.0","?C","184.0","Celsius"
"NNC(=O)C1=C2C=CC=CC2=NC(=C1)C1=CC=CC=C1","4779-54-8","EN300-03627","1299","2-Phenyl-quinoline-4-carboxylic acid hydrazide","-","A55638","25489863","-","-","36.0 - 38.0","?C","37.0","Celsius"
"CC1=CC=C(C=C1)C1=NC2=C(C=CC=C2)C(=C1)C(=O)NN","-","EN300-03628","1300","2-p-Tolyl-quinoline-4-carboxylic acid hydrazide","-","A55638","25489863","-","-","85.0 - 90.0","?C","87.5","Celsius"
"NNC(=O)CSC1=NC2=C(O1)C=CC=C2","113546-63-7","EN300-03629","1301","(Benzooxazol-2-ylsulfanyl)-acetic acid hydrazide","-","A55638","25489863","-","-","169.0 - 171.0","?C","170.0","Celsius"
"NNC(=O)COC1=CC=C(C=C1)C#N","-","EN300-03630","1302","(4-Cyano-phenoxy)-acetic acid hydrazide","-","A55638","25489863","-","-","180.0 - 182.0","?C","181.0","Celsius"
"NNC(=O)COC1=C(F)C=CC=C1","380426-61-9","EN300-03633","1303","(2-Fluoro-phenoxy)-acetic acid hydrazide","-","A55638","25489863","-","-","109.0 - 112.0","?C","110.0","Celsius"
"CC1=CC(NC(=S)NN)=C(C)C=C1","64374-53-4","EN300-03634","1304","N-(2,5-dimethylphenyl)hydrazinecarbothioamide","-","A55638","25489863","-","-","162.0 - 164.0","?C","163.0","Celsius"
"NNC(=O)CC1=CN2C=CSC2=N1","-","EN300-03636","1305","Imidazo[2,1-b]thiazol-6-yl-acetic acid hydrazide","-","A55638","25489863","-","-","97.0 - 101.0","?C","99.0","Celsius"
"NNC(=O)C1=CC=C(NS(=O)(=O)C2=CC=CS2)C=C1","-","EN300-03640","1307","Thiophene-2-sulfonic acid (4-hydrazinocarbonyl-phenyl)-amide","-","A55638","25489863","-","-","178.0 - 180.0","?C","179.0","Celsius"
"CC1=C(C)C=C(NC(=S)NN)C=C1","6610-33-9","EN300-03641","1308","N-(3,4-dimethylphenyl)hydrazinecarbothioamide","-","A55638","25489863","-","-","176.0 - 178.0","?C","177.0","Celsius"
"NNC(=O)CC1=CSC(=N1)N1CCOCC1","-","EN300-03642","1309","(2-Morpholin-4-yl-thiazol-4-yl)-acetic acid hydrazide","-","A55638","25489863","-","-","168.0 - 170.0","?C","169.0","Celsius"
"CC1=CC(OCC(=O)NN)=CC=C1","36304-38-8","EN300-03643","1310","m-Tolyloxy-acetic acid hydrazide","-","A55638","25489863","-","-","109.0 - 111.0","?C","110.0","Celsius"
"COC1=CC=C(NCC(=O)NN)C=C1","79476-73-6","EN300-03644","1311","(4-Methoxy-phenylamino)-acetic acid hydrazide","-","A55638","25489863","-","-","94.0 - 98.0","?C","96.0","Celsius"
"CC1=C(N2C=CC=CC2=N1)C(=O)NN","144835-67-6","EN300-03645","1312","2-Methyl-imidazo[1,2-a]pyridine-3-carboxylic acid hydrazide","-","A55638","25489863","-","-","188.0 - 190.0","?C","189.0","Celsius"
"NNS(=O)(=O)C1=CC(=C(Cl)C=C1)[N+]([O-])=O","6655-80-7","EN300-03646","1313","4-chloro-3-nitrobenzenesulfonohydrazide","-","A55638","25489863","-","-","126.0 - 128.0","?C","127.0","Celsius"
"COC1=CC(=CC(OC)=C1OC)C1=NC2=C(C=CC=C2)C(=C1)C(=O)NN","-","EN300-03653","1315","2-(3,4,5-Trimethoxy-phenyl)-quinoline-4-carboxylic acid hydrazide","-","A55638","25489863","-","-","200.0 - 202.0","?C","201.0","Celsius"
"CC1=CC(C)=C(NS(=O)(=O)C2=C(NN)C=CC(=C2)[N+]([O-])=O)C=C1","-","EN300-03654","1316","N-(2,4-Dimethyl-phenyl)-2-hydrazino-5-nitro-benzenesulfonamide","-","A55638","25489863","-","-","165.0 - 167.0","?C","166.0","Celsius"
"NNS(=O)(=O)C1=CC=C(Br)C=C1","2297-64-5","EN300-03655","1317","4-bromobenzenesulfonohydrazide","-","A55638","25489863","-","-","225.0 - 227.0","?C","226.0","Celsius"
"CC1=NN(C2=C1C=C(S2)C(=O)NN)C1=CC=CC=C1","-","EN300-03656","1318","3-Methyl-1-phenyl-1H-thieno[2,3-c]pyrazole-5-carboxylic acid hydrazide","-","A55638","25489863","-","-","264.0 - 266.0","?C","265.0","Celsius"
"NNC(=O)C1=C2C=CC=CC2=NC(=C1)C1=CC=C(Cl)C=C1","-","EN300-03657","1319","2-(4-Chloro-phenyl)-quinoline-4-carboxylic acid hydrazide","-","A55638","25489863","-","-","238.0 - 240.0","?C","239.0","Celsius"
"NNC(=O)C1=C2C=CC=CC2=NC(=C1)C1=CC=NC=C1","5206-34-8","EN300-03658","1320","2-Pyridin-4-yl-quinoline-4-carboxylic acid hydrazide","-","A55638","25489863","-","-","226.0 - 228.0","?C","227.0","Celsius"
"NNC(=O)C1=CNC2=C1C=CC=C2","15317-58-5","EN300-03661","1321","1H-Indole-3-carboxylic acid hydrazide","-","A55638","25489863","-","-","229.0 - 231.0","?C","230.0","Celsius"
"CC1=CC(=C(C)C=C1)S(=O)(=O)NN","38045-54-4","EN300-03662","1322","2,5-dimethylbenzenesulfonohydrazide","-","A55638","25489863","-","-","75.0 - 77.0","?C","76.0","Celsius"
"NNC(=O)C1=CC=C(CSC2=NC3=C(N2)C=CC=C3)C=C1","-","EN300-03665","1324","4-(1H-Benzoimidazol-2-ylsulfanylmethyl)-benzoic acid hydrazide","-","A55638","25489863","-","-","64.0 - 66.0","?C","65.0","Celsius"
"NNC(=O)C1CC1","6952-93-8","EN300-03670","1325","Cyclopropanecarboxylic acid hydrazide","-","A55638","25489863","-","-","92.0 - 94.0","?C","93.0","Celsius"
"NNC(=O)CN1C=CC(=N1)C(F)(F)F","-","EN300-03674","1326","(3-Trifluoromethyl-pyrazol-1-yl)-acetic acid hydrazide","-","A55638","25489863","-","-","157.0 - 159.0","?C","158.0","Celsius"
"CC1=CC(C)=NC(SCC2=CC=C(C=C2)C(=O)NN)=N1","-","EN300-03675","1327","4-(4,6-Dimethyl-pyrimidin-2-ylsulfanylmethyl)-benzoic acid hydrazide","-","A55638","25489863","-","-","135.0 - 137.0","?C","136.0","Celsius"
"CN(CC1=CC=C(C=C1)C(=O)NN)S(=O)(=O)C1=CC=C(C)C=C1","-","EN300-03678","1328","N-(4-Hydrazinocarbonyl-benzyl)-4,N-dimethyl-benzenesulfonamide","-","A55638","25489863","-","-","66.0 - 68.0","?C","67.0","Celsius"
"NNC(=O)C1=CC=C(COC2=CC=CC=C2)C=C1","-","EN300-03683","1329","4-Phenoxymethyl-benzoic acid hydrazide","-","A55638","25489863","-","-","148.0 - 150.0","?C","149.0","Celsius"
"NN=C1C(=O)NC2=C(Cl)C=C(Cl)C=C12","35246-87-8","EN300-03689","1330","5,7-Dichloro-3-hydrazono-1,3-dihydro-indol-2-one","-","A55638","25489863","-","-","261.0 - 263.0","?C","262.0","Celsius"
"CC1=CC(C(=O)NN)=C(C)O1","-","EN300-03691","1331","2,5-Dimethyl-furan-3-carboxylic acid hydrazide","-","A55638","25489863","-","-","132.0 - 134.0","?C","133.0","Celsius"
"NNC(=O)CNC1=CC(=CC=C1)C(F)(F)F","-","EN300-03693","1332","(3-Trifluoromethyl-phenylamino)-acetic acid hydrazide","-","A55638","25489863","-","-","80.0 - 82.0","?C","81.0","Celsius"
"NNC(=O)C1=CN(N=C1C1=CC=CC=C1)C1=CC=CC=C1","-","EN300-03695","1333","1,3-Diphenyl-1H-pyrazole-4-carboxylic acid hydrazide","-","A55638","25489863","-","-","161.0 - 163.0","?C","162.0","Celsius"
"NNC(=O)C1=CC=C(COC2=C3N=CC=CC3=CC=C2)C=C1","-","EN300-03699","1334","4-(Quinolin-8-yloxymethyl)-benzoic acid hydrazide","-","A55638","25489863","-","-","135.0 - 137.0","?C","136.0","Celsius"
"CC1=CC(C(=O)NN)=C(C)N1C1=CC=C(F)C=C1","-","EN300-03702","1335","1-(4-Fluoro-phenyl)-2,5-dimethyl-1H-pyrrole-3-carboxylic acid hydrazide","-","A55638","25489863","-","-","160.0 - 162.0","?C","161.0","Celsius"
"CCOC1=CC=C(OCC2=CC=C(C=C2)C(=O)NN)C=C1","-","EN300-03704","1336","4-(4-Ethoxy-phenoxymethyl)-benzoic acid hydrazide","-","A55638","25489863","-","-","127.0 - 129.0","?C","128.0","Celsius"
"CC1=C(C)C(NC(=S)NN)=CC=C1","13278-47-2","EN300-03707","1337","N-(2,3-dimethylphenyl)hydrazinecarbothioamide","-","A55638","25489863","-","-","170.0 - 172.0","?C","171.0","Celsius"
"NNC(=O)CCC1=CC=C(C=C1)S(=O)(=O)N1CCOCC1","-","EN300-03709","1338","3-[4-(Morpholine-4-sulfonyl)-phenyl]-propionic acid hydrazide","-","A55638","25489863","-","-","128.0 - 130.0","?C","129.0","Celsius"
"NNC(=S)NC1=C(F)C=CC=C1","38985-72-7","EN300-03713","1339","N-(2-fluorophenyl)hydrazinecarbothioamide","-","A55638","25489863","-","-","159.0 - 161.0","?C","160.0","Celsius"
"CC1=C(OCC(=O)NN)C=CC=C1","36304-37-7","EN300-03715","1340","o-Tolyloxy-acetic acid hydrazide","-","A55638","25489863","-","-","120.0 - 122.0","?C","121.0","Celsius"
"COC1=C(OCC(=O)NN)C=CC=C1","107967-88-4","EN300-03724","1341","(2-Methoxy-phenoxy)-acetic acid hydrazide","-","A55638","25489863","-","-","101.0 - 103.0","?C","102.0","Celsius"
"COC1=CC=C(OCC(=O)NN)C=C1","21953-91-3","EN300-03725","1342","(4-Methoxy-phenoxy)-acetic acid hydrazide","-","A55638","25489863","-","-","142.0 - 144.0","?C","143.0","Celsius"
"CC(C)C1=CC=C(NC(=S)NN)C=C1","-","EN300-03726","1343","N-(4-isopropylphenyl)hydrazinecarbothioamide","-","A55638","25489863","-","-","179.0 - 181.0","?C","180.0","Celsius"
"CC1=CC(OCC(=O)NN)=C(C)C=C1","103896-91-9","EN300-03729","1344","(2,5-Dimethyl-phenoxy)-acetic acid hydrazide","-","A55638","25489863","-","-","153.0 - 155.0","?C","154.0","Celsius"
"NNC(=O)COC1=CC=C(OCC2=CC=CC=C2)C=C1","-","EN300-03731","1345","(4-Benzyloxy-phenoxy)-acetic acid hydrazide","-","A55638","25489863","-","-","142.0 - 144.0","?C","143.0","Celsius"
"NNC(=O)CSC1=NN=C(N1C1=CC=CC=C1)C1=CC=CC=C1","49656-91-9","EN300-03733","1346","(4,5-Diphenyl-4H-[1,2,4]triazol-3-ylsulfanyl)-acetic acid hydrazide","-","A55638","25489863","-","-","242.0 - 244.0","?C","243.0","Celsius"
"CC1=CC=C(NCC(=O)NN)C=C1","2350-99-4","EN300-03736","1347","p-Tolylamino-acetic acid hydrazide","-","A55638","25489863","-","-","154.0 - 156.0","?C","155.0","Celsius"
"NNC(=O)C1=CC2=C(CCCCC2)S1","-","EN300-03746","1351","5,6,7,8-Tetrahydro-4H-cyclohepta[b]thiophene-2-carboxylic acid hydrazide","-","A55638","25489863","-","-","253.0 - 255.0","?C","254.0","Celsius"
"COC1=C(NCC(=O)NN)C=CC=C1","-","EN300-03750","1352","(2-Methoxy-phenylamino)-acetic acid hydrazide","-","A55638","25489863","-","-","103.0 - 105.0","?C","104.0","Celsius"
"CCOC1=C(OCC(=O)NN)C=CC=C1","-","EN300-03752","1353","(2-Ethoxy-phenoxy)-acetic acid hydrazide","-","A55638","25489863","-","-","94.0 - 96.0","?C","95.0","Celsius"
"NNC(=O)C1=CC=C(NS(=O)(=O)C2=CC(=CC=C2)[N+]([O-])=O)C=C1","-","EN300-03755","1354","N-(4-Hydrazinocarbonyl-phenyl)-3-nitro-benzenesulfonamide","-","A55638","25489863","-","-","80.0 - 82.0","?C","81.0","Celsius"
"CCC1=C(OCC(=O)NN)C=CC=C1","-","EN300-03759","1355","(2-Ethyl-phenoxy)-acetic acid hydrazide","-","A55638","25489863","-","-","107.0 - 109.0","?C","108.0","Celsius"
"COC1=CC=C(C=C1)C1=NNC(=C1)C(=O)NN","-","EN300-03760","1356","5-(4-Methoxy-phenyl)-2H-pyrazole-3-carboxylic acid hydrazide","-","A55638","25489863","-","-","205.0 - 220.0","?C","212.0","Celsius"
"NNC(=O)CNC1=CC=CC=C1","29111-46-4","EN300-03767","1357","Phenylamino-acetic acid hydrazide","-","A55638","25489863","-","-","126.0 - 128.0","?C","127.0","Celsius"
"NNC(=O)COC1=CC=C(Br)C=C1","16738-00-4","EN300-03768","1358","(4-Bromo-phenoxy)-acetic acid hydrazide","-","A55638","25489863","-","-","170.0 - 172.0","?C","171.0","Celsius"
"CC1=CC=C(C=C1)N1C(SCC(=O)NN)=NN=C1C1=CC=CC=C1","-","EN300-03769","1359","(5-Phenyl-4-p-tolyl-4H-[1,2,4]triazol-3-ylsulfanyl)-acetic acid hydrazide","-","A55638","25489863","-","-","90.0 - 92.0","?C","91.0","Celsius"
"NNC(=O)CC1=NC2=C(N1)C=CC=C2","19731-02-3","EN300-03781","1361","(1H-Benzoimidazol-2-yl)-acetic acid hydrazide","-","A55638","25489863","-","-","177.0 - 181.0","?C","179.0","Celsius"
"CN(C)S(=O)(=O)C1=CC(=CC=C1)C(=O)NN","96134-79-1","EN300-03791","1362","3-Hydrazinocarbonyl-N,N-dimethyl-benzenesulfonamide","-","A55638","25489863","-","-","149.0 - 151.0","?C","150.0","Celsius"
"CCOC1=CC=C(NC(=S)NN)C=C1","64374-52-3","EN300-03794","1363","N-(4-ethoxyphenyl)hydrazinecarbothioamide","-","A55638","25489863","-","-","178.0 - 182.0","?C","180.0","Celsius"
"NNC(=O)CNC1=C(F)C=CC=C1","2371-27-9","EN300-03796","1364","(2-Fluoro-phenylamino)-acetic acid hydrazide","-","A55638","25489863","-","-","99.0 - 101.0","?C","100.0","Celsius"
"COCCNC(=S)NN","6926-54-1","EN300-03797","1365","N-(2-methoxyethyl)hydrazinecarbothioamide","-","A55638","25489863","-","-","85.0 - 87.0","?C","86.0","Celsius"
"CN(C)S(=O)(=O)C1=CC(NC(=S)NN)=C(C)C=C1","-","EN300-03801","1366","N-{5-[(dimethylamino)sulfonyl]-2-methylphenylhydrazinecarbothioamide","-","A55638","25489863","-","-","191.0 - 193.0","?C","192.0","Celsius"
"COC1=CC(NC(=S)NN)=CC=C1","42135-73-9","EN300-03802","1367","N-(3-methoxyphenyl)hydrazinecarbothioamide","-","A55638","25489863","-","-","168.0 - 170.0","?C","169.0","Celsius"
"CC(=C)CNC(=S)NN","39215-63-9","EN300-03810","1369","N-(2-methylprop-2-enyl)hydrazinecarbothioamide","-","A55638","25489863","-","-","86.0 - 88.0","?C","87.0","Celsius"
"NNC(=S)NC1=C(Cl)C=CC(=C1)S(=O)(=O)N1CCOCC1","-","EN300-03815","1370","N-[2-chloro-5-(morpholin-4-ylsulfonyl)phenyl]hydrazinecarbothioamide","-","A55638","25489863","-","-","181.0 - 183.0","?C","182.0","Celsius"
"NNC(=S)NC1=CN=CC=C1","34955-25-4","EN300-03817","1371","N-pyridin-3-ylhydrazinecarbothioamide","-","A55638","25489863","-","-","174.0 - 176.0","?C","175.0","Celsius"
"NNC(=O)C1=CC(=CC(=C1)[N+]([O-])=O)[N+]([O-])=O","2900-63-2","EN300-03821","1372","3,5-Dinitro-benzoic acid hydrazide","-","A55638","25489863","-","-","157.0 - 159.0","?C","158.0","Celsius"
"CCCCCC(C)CNC(=S)NN","-","EN300-03824","1373","N-(2-methylheptyl)hydrazinecarbothioamide","-","A55638","25489863","-","-","48.0 - 50.0","?C","49.0","Celsius"
"NNC(=O)CSC1=CC=C(Cl)C=C1","75150-40-2","EN300-03829","1374","(4-Chloro-phenylsulfanyl)-acetic acid hydrazide","-","A55638","25489863","-","-","100.0 - 102.0","?C","101.0","Celsius"
"CC1=NC2=C(C=CC=C2)N1CC(=O)NN","-","EN300-03831","1375","(2-Methyl-benzoimidazol-1-yl)-acetic acid hydrazide","-","A55638","25489863","-","-","233.0 - 235.0","?C","234.0","Celsius"
"NNC(=O)CN1C=NC2=C1C=CC=C2","-","EN300-03833","1376","Benzoimidazol-1-yl-acetic acid hydrazide","-","A55638","25489863","-","-","108.0 - 110.0","?C","109.0","Celsius"
"CC1=C2C=CC=CC2=NC(NN)=C1","21703-52-6","EN300-03834","1377","(4-Methyl-quinolin-2-yl)-hydrazine","-","A55638","25489863","-","-","146.0 - 148.0","?C","147.0","Celsius"
"NNC(=O)CN1CCCC2=C1C=CC=C2","-","EN300-03836","1378","(3,4-Dihydro-2H-quinolin-1-yl)-acetic acid hydrazide","-","A55638","25489863","-","-","107.0 - 109.0","?C","108.0","Celsius"
"CC1=CC(=O)OC2=C1C=CC(OCC(=O)NN)=C2","69321-36-4","EN300-03837","1379","(4-Methyl-2-oxo-2H-chromen-7-yloxy)-acetic acid hydrazide","-","A55638","25489863","-","-","179.0 - 181.0","?C","180.0","Celsius"
"NNC(=O)C1=NC=CC=C1","1452-63-7","EN300-03839","1380","Pyridine-2-carboxylic acid hydrazide","-","A55638","25489863","-","-","95.0 - 100.0","?C","97.5","Celsius"
"CC1=C(C)C2=C(S1)N=CN(N)C2=O","32973-77-6","EN300-03841","1381","3-Amino-5,6-dimethyl-3H-thieno[2,3-d]pyrimidin-4-one","-","A55638","25489863","-","-","131.0 - 133.0","?C","132.0","Celsius"
"CCCCC1=CC=C(NC(=S)NN)C=C1","-","EN300-03843","1382","N-(4-butylphenyl)hydrazinecarbothioamide","-","A55638","25489863","-","-","125.0 - 127.0","?C","126.0","Celsius"
"CCC1=CC2=C(S1)N=CN(N)C2=O","-","EN300-03850","1383","3-Amino-6-ethyl-3H-thieno[2,3-d]pyrimidin-4-one","-","A55638","25489863","-","-","137.0 - 139.0","?C","138.0","Celsius"
"CN(C)C1=CC(=CC=C1)C(=O)NN","205927-64-6","EN300-03855","1384","3-Dimethylamino-benzoic acid hydrazide","-","A55638","25489863","-","-","99.0 - 101.0","?C","100.0","Celsius"
"CC1=NC2=C(C=CC=C2)C(=C1)C(N)=O","15821-13-3","EN300-03859","1385","2-Methyl-quinoline-4-carboxylic acid amide","-","A55638","25489863","-","-","246.0 - 248.0","?C","247.0","Celsius"
"NC(=O)C(F)(F)C1=CC=CC=C1","383-19-7","EN300-03862","1386","2,2-Difluoro-2-phenyl-acetamide","-","A55638","25489863","-","-","116.0 - 118.0","?C","117.0","Celsius"
"CC(C)NC(N)=O","691-60-1","EN300-03863","1387","Isopropyl-urea","-","A55638","25489863","-","-","154.0 - 156.0","?C","155.0","Celsius"
"FC1=C(Cl)C=C(C=C1)N1C(=O)C=CC1=O","134220-37-4","EN300-03874","1388","1-(3-Chloro-4-fluoro-phenyl)-pyrrole-2,5-dione","-","A55638","25489863","-","-","159.0 - 161.0","?C","160.0","Celsius"
"COC1=CC(OC)=C(C=C1)N1C(=O)C=CC1=O","67154-42-1","EN300-03877","1389","1-(2,4-Dimethoxy-phenyl)-pyrrole-2,5-dione","-","A55638","25489863","-","-","125.0 - 127.0","?C","126.0","Celsius"
"ClC1=CC(=CC(Cl)=C1)N1C(=O)C=CC1=O","24096-52-4","EN300-03882","1390","1-(3,5-Dichloro-phenyl)-pyrrole-2,5-dione","-","A55638","25489863","-","-","139.0 - 141.0","?C","140.0","Celsius"
"CC1=CC(N2C(=O)C=CC2=O)=C(C)C=C1","31489-19-7","EN300-03884","1391","1-(2,5-Dimethyl-phenyl)-pyrrole-2,5-dione","-","A55638","25489863","-","-","79.0 - 81.0","?C","80.0","Celsius"