"SMILES","CASRN","EXTERNALID","N","NAME","NAME","ARTICLEID","PUBMEDID","PAGE","TABLE","Melting Point {measured}","UNIT {Melting Point}","Melting Point {measured, converted}","UNIT {Melting Point}"
"COC1=CC2=C(C=C(CCCN)N2)C(OC)=C1","-","EN300-103687","4386","3-(4,6-dimethoxy-1H-indol-2-yl)propan-1-amine","-","A55638","25489863","-","-","113.0 - 115.0","?C","114.0","Celsius"
"NC1=NC(=O)C(CC(O)=O)S1","33176-41-9","EN300-10369","4387","(2-amino-4-oxo-4,5-dihydro-1,3-thiazol-5-yl)acetic acid","-","A55638","25489863","-","-","256.0 - 258.0","?C","257.0","Celsius"
"CN1C=CC(=C1)C(=O)CCl","126624-55-3","EN300-10370","4389","2-chloro-1-(1-methyl-1H-pyrrol-3-yl)ethanone","-","A55638","25489863","-","-","49.0 - 51.0","?C","50.0","Celsius"
"O=C(CC1=CC=CC=C1)C1=NC2=C(S1)C=CC=C2","-","EN300-10371","4390","1-(1,3-benzothiazol-2-yl)-2-phenylethanone","-","A55638","25489863","-","-","110.0 - 112.0","?C","111.0","Celsius"
"OC(=O)C1=C(F)C=C(C=C1F)C#N","-","EN300-103736","4392","4-cyano-2,6-difluorobenzoic acid","-","A55638","25489863","-","-","189.0 - 191.0","?C","190.0","Celsius"
"O=S1(=O)CCNCC11CCCCC1","-","EN300-103738","4393","1$l^{6}-thia-4-azaspiro[5.5]undecane-1,1-dione","-","A55638","25489863","-","-","99.0 - 101.0","?C","100.0","Celsius"
"CC1=C(C=C(O1)S(N)(=O)=O)C(O)=O","-","EN300-103739","4394","2-methyl-5-sulfamoylfuran-3-carboxylic acid","-","A55638","25489863","-","-","209.0 - 211.0","?C","210.0","Celsius"
"FC(F)OC1=CC=C(CNC23CC4CC(CC(C4)C2)C3)C=C1","-","EN300-10374","4395","N-[4-(difluoromethoxy)benzyl]adamantan-1-amine","-","A55638","25489863","-","-","283.0 - 285.0","?C","284.0","Celsius"
"[O-][N+](=O)C1=CC(OC2=CC=C(C=C2)C#N)=CC=C1","-","EN300-103741","4397","4-(3-nitrophenoxy)benzonitrile","-","A55638","25489863","-","-","124.0 - 126.0","?C","125.0","Celsius"
"CC1CNC2=C(S1)C=CC=C2","-","EN300-103743","4398","2-methyl-3,4-dihydro-2H-1,4-benzothiazine","-","A55638","25489863","-","-","41.0 - 43.0","?C","42.0","Celsius"
"CCC1=C(SC=C1)C(N)=O","-","EN300-103749","4399","3-ethylthiophene-2-carboxamide","-","A55638","25489863","-","-","146.0 - 148.0","?C","147.0","Celsius"
"COCCCN1C(S)=NC2=C(C=CC=C2)C1=O","216880-47-6","EN300-10376","4404","2-mercapto-3-(3-methoxypropyl)quinazolin-4(3H)-one","-","A55638","25489863","-","-","180.0 - 182.0","?C","181.0","Celsius"
"CC(C)(C)NCCS(C)(=O)=O","-","EN300-103782","4405","tert-butyl(2-methanesulfonylethyl)amine","-","A55638","25489863","-","-","39.0 - 41.0","?C","40.0","Celsius"
"OCC1=CN(N=N1)C1=CC=C(Cl)C=C1","-","EN300-103788","4406","[1-(4-chlorophenyl)-1H-1,2,3-triazol-4-yl]methanol","-","A55638","25489863","-","-","142.0 - 144.0","?C","143.0","Celsius"
"CC1=CC(C)=C(NC(=O)NC(=O)CCl)C=C1","-","EN300-10379","4407","2-chloro-N-{[(2,4-dimethylphenyl)amino]carbonyl}acetamide","-","A55638","25489863","-","-","159.0 - 161.0","?C","160.0","Celsius"
"CC1=C(C2=C(S1)C=CC=C2)S(Cl)(=O)=O","-","EN300-103795","4408","2-methyl-1-benzothiophene-3-sulfonyl chloride","-","A55638","25489863","-","-","117.0 - 119.0","?C","118.0","Celsius"
"COC1=C(SC(=C1)C(O)=O)S(N)(=O)=O","-","EN300-103798","4409","4-methoxy-5-sulfamoylthiophene-2-carboxylic acid","-","A55638","25489863","-","-","254.0 - 256.0","?C","255.0","Celsius"
"COC1=CC2=C(C=C1)C=C(CO2)C#N","-","EN300-103799","4410","7-methoxy-2H-chromene-3-carbonitrile","-","A55638","25489863","-","-","93.0 - 95.0","?C","94.0","Celsius"
"CC1=CC(=O)OC2=C1C=CC(O)=C2C","4115-76-8","EN300-10380","4411","7-hydroxy-4,8-dimethyl-2H-chromen-2-one","-","A55638","25489863","-","-","253.0 - 255.0","?C","254.0","Celsius"
"CC(SC1=NC=CC=C1)C(O)=O","-","EN300-103800","4412","2-(pyridin-2-ylsulfanyl)propanoic acid","-","A55638","25489863","-","-","70.0 - 72.0","?C","71.0","Celsius"
"CC(=O)C1=CC(F)=C(OC2CCCCC2)C=C1","-","EN300-103805","4413","1-[4-(cyclohexyloxy)-3-fluorophenyl]ethan-1-one","-","A55638","25489863","-","-","48.0 - 50.0","?C","49.0","Celsius"
"ClCC1=CN(N=N1)C1=CC=C(Cl)C=C1","-","EN300-103810","4414","4-(chloromethyl)-1-(4-chlorophenyl)-1H-1,2,3-triazole","-","A55638","25489863","-","-","139.0 - 141.0","?C","140.0","Celsius"
"COC1=CC=C(CCC(=O)NC2=C(C=CC=C2)C(O)=O)C=C1","-","EN300-10382","4415","2-{[3-(4-methoxyphenyl)propanoyl]amino}benzoic acid","-","A55638","25489863","-","-","159.0 - 161.0","?C","160.0","Celsius"
"OCC1=CN=C2C=CC=CN12","-","EN300-103848","4416","imidazo[1,2-a]pyridin-3-ylmethanol","-","A55638","25489863","-","-","123.0 - 125.0","?C","124.0","Celsius"
"CC1=C(F)C=C(C(=O)CCl)C(F)=C1","-","EN300-103851","4417","2-chloro-1-(2,5-difluoro-4-methylphenyl)ethan-1-one","-","A55638","25489863","-","-","93.0 - 95.0","?C","94.0","Celsius"
"CN1C=C(C=N1)C1=NC=C(S1)C=O","-","EN300-103852","4418","2-(1-methyl-1H-pyrazol-4-yl)-1,3-thiazole-5-carbaldehyde","-","A55638","25489863","-","-","141.0 - 143.0","?C","142.0","Celsius"
"CC(N1C=NC2=C1C=C(C)C(C)=C2)C(N)=S","-","EN300-103854","4419","2-(5,6-dimethyl-1H-1,3-benzodiazol-1-yl)propanethioamide","-","A55638","25489863","-","-","204.0 - 206.0","?C","205.0","Celsius"
"CC(C(O)=O)=C1CCCC1","-","EN300-103855","4420","2-cyclopentylidenepropanoic acid","-","A55638","25489863","-","-","107.0 - 109.0","?C","108.0","Celsius"
"CCN1C(=O)N(C)C(C)(C)C1=N","-","EN300-103856","4421","1-ethyl-5-imino-3,4,4-trimethylimidazolidin-2-one","-","A55638","25489863","-","-","88.0 - 90.0","?C","89.0","Celsius"
"OC(=O)C1=CSC(C=O)=C1","-","EN300-103857","4422","5-formylthiophene-3-carboxylic acid","-","A55638","25489863","-","-","173.0 - 175.0","?C","174.0","Celsius"
"CNC1=NN=C(C=C1)C1=CC=CC=C1","-","EN300-103858","4423","N-methyl-6-phenylpyridazin-3-amine","-","A55638","25489863","-","-","157.0 - 159.0","?C","158.0","Celsius"
"OCCNC1=NN=C(C=C1)C1=CC=CC=C1","-","EN300-103859","4424","2-[(6-phenylpyridazin-3-yl)amino]ethan-1-ol","-","A55638","25489863","-","-","162.0 - 164.0","?C","163.0","Celsius"
"BrC1CCS(=O)(=O)CC1","-","EN300-103862","4425","4-bromo-1$l^{6}-thiane-1,1-dione","-","A55638","25489863","-","-","127.0 - 129.0","?C","128.0","Celsius"
"CC(C)(C)NCC(N)=O","-","EN300-103863","4426","2-(tert-butylamino)acetamide","-","A55638","25489863","-","-","49.0 - 51.0","?C","50.0","Celsius"
"NC1=CC=C(C=C1)C1=CNC=C1","-","EN300-103886","4428","4-(1H-pyrrol-3-yl)aniline","-","A55638","25489863","-","-","99.0 - 101.0","?C","100.0","Celsius"
"NC1=CC=C(C=C1)C(=O)NC1CCOCC1","-","EN300-103892","4429","4-amino-N-(oxan-4-yl)benzamide","-","A55638","25489863","-","-","217.0 - 219.0","?C","218.0","Celsius"
"FC1=C2SC=C(CBr)C2=CC=C1","-","EN300-103893","4430","3-(bromomethyl)-7-fluoro-1-benzothiophene","-","A55638","25489863","-","-","74.0 - 76.0","?C","75.0","Celsius"
"CC1=CC(=O)N(C2CCCCC2)C1=O","-","EN300-103896","4431","1-cyclohexyl-3-methyl-2,5-dihydro-1H-pyrrole-2,5-dione","-","A55638","25489863","-","-","99.0 - 101.0","?C","100.0","Celsius"
"OCCN1C(CSC2=NN=C(O2)C2=CC3=C(OCO3)C=C2)=NC2=C1C=C(Cl)C=C2","-","EN300-103897","4432","2-[2-({[5-(2H-1,3-benzodioxol-5-yl)-1,3,4-oxadiazol-2-yl]sulfanyl}methyl)-6-chloro-1H-1,3-benzodiazol-1-yl]ethan-1-ol","-","A55638","25489863","-","-","202.0 - 204.0","?C","203.0","Celsius"
"CC1=NC(OC2=CC=C(N)C=C2)=NC=C1","-","EN300-103899","4433","4-[(4-methylpyrimidin-2-yl)oxy]aniline","-","A55638","25489863","-","-","119.0 - 121.0","?C","120.0","Celsius"
"OC[C@@H](O)CNCCC(F)(F)F","-","EN300-103900","4434","(2S)-3-[(3,3,3-trifluoropropyl)amino]propane-1,2-diol","-","A55638","25489863","-","-","34.0 - 36.0","?C","35.0","Celsius"
"CCOC(=O)C1=CC(=C(OC)C(Br)=C1)S(Cl)(=O)=O","-","EN300-103901","4435","ethyl 3-bromo-5-(chlorosulfonyl)-4-methoxybenzoate","-","A55638","25489863","-","-","62.0 - 64.0","?C","63.0","Celsius"
"NCCCC1=NC(=NN1)C1CC1","-","EN300-103903","4436","3-(3-cyclopropyl-1H-1,2,4-triazol-5-yl)propan-1-amine","-","A55638","25489863","-","-","207.0 - 209.0","?C","208.0","Celsius"
"COC1=CC(=CC=C1)C1=NN(C=C1C(O)=O)C1=CC=C(C)C=C1","-","EN300-10391","4437","3-(3-methoxyphenyl)-1-(4-methylphenyl)-1H-pyrazole-4-carboxylic acid","-","A55638","25489863","-","-","162.0 - 164.0","?C","163.0","Celsius"
"COC1=C(N)C(=NC=N1)N(C)C","-","EN300-103911","4438","6-methoxy-4-N,4-N-dimethylpyrimidine-4,5-diamine","-","A55638","25489863","-","-","69.0 - 71.0","?C","70.0","Celsius"
"CC(C)C1(CC1)C(O)=O","-","EN300-103914","4439","1-(propan-2-yl)cyclopropane-1-carboxylic acid","-","A55638","25489863","-","-","54.0 - 56.0","?C","55.0","Celsius"
"CC1=CC=C(C=C1)N1C=C(C(O)=O)C(=N1)C1=CC=CC=C1","-","EN300-10392","4440","1-(4-methylphenyl)-3-phenyl-1H-pyrazole-4-carboxylic acid","-","A55638","25489863","-","-","194.0 - 196.0","?C","195.0","Celsius"
"COC(=O)C1=CC(=NN1)C(=O)OC","-","EN300-103931","4441","3,5-dimethyl 1H-pyrazole-3,5-dicarboxylate","-","A55638","25489863","-","-","149.0 - 151.0","?C","150.0","Celsius"
"SC1=NC(C2=CC=CS2)=C(N1)C1=CC=CS1","-","EN300-10394","4443","4,5-dithien-2-yl-1,3-dihydro-2H-imidazole-2-thione","-","A55638","25489863","-","-","293.0 - 295.0","?C","294.0","Celsius"
"NC(=O)NCC(O)=O","462-60-2","EN300-10397","4444","[(aminocarbonyl)amino]acetic acid","-","A55638","25489863","-","-","174.0 - 176.0","?C","175.0","Celsius"
"OC(=O)C1=CC2=C(OCC(=O)N2)N=C1","-","EN300-103979","4445","2-oxo-1H,2H,3H-pyrido[2,3-b][1,4]oxazine-7-carboxylic acid","-","A55638","25489863","-","-","319.0 - 321.0","?C","320.0","Celsius"
"CN(C)CC1=NN=C(S)O1","33083-43-1","EN300-10400","4446","5-[(dimethylamino)methyl]-1,3,4-oxadiazole-2-thiol","-","A55638","25489863","-","-","202.0 - 204.0","?C","203.0","Celsius"
"SC1=NN=C(CN2CCCC2)N1C1=CC=C(Cl)C=C1","-","EN300-10401","4447","4-(4-chlorophenyl)-5-(pyrrolidin-1-ylmethyl)-4H-1,2,4-triazole-3-thiol","-","A55638","25489863","-","-","260.0 - 262.0","?C","261.0","Celsius"
"CCC(=O)NC1=CC=C(O)C=C1","-","EN300-104019","4449","N-(4-Hydroxyphenyl)propanamide","-","A55638","25489863","-","-","169.0 - 171.0","?C","170.0","Celsius"
"CS(=O)(=O)N1CCCC1C(O)=O","-","EN300-10402","4450","1-(methylsulfonyl)pyrrolidine-2-carboxylic acid","-","A55638","25489863","-","-","52.0 - 54.0","?C","53.0","Celsius"
"NC(=O)CN1CC(CC1=O)C(O)=O","-","EN300-104020","4451","1-(carbamoylmethyl)-5-oxopyrrolidine-3-carboxylic acid","-","A55638","25489863","-","-","169.0 - 171.0","?C","170.0","Celsius"
"CC(C)C(=O)NC1=CC=C(O)C=C1","-","EN300-104024","4453","N-(4-hydroxyphenyl)-2-methylpropanamide","-","A55638","25489863","-","-","158.0 - 160.0","?C","159.0","Celsius"
"OC(=O)CNC1=C2C=CC=CC2=NC=N1","55040-11-4","EN300-10403","4455","(quinazolin-4-ylamino)acetic acid","-","A55638","25489863","-","-","219.0 - 221.0","?C","220.0","Celsius"
"OC(=O)C1=CC=C(NC2=C3C=CC=CC3=NC=N2)C=C1","-","EN300-10404","4456","4-(quinazolin-4-ylamino)benzoic acid","-","A55638","25489863","-","-","345.0 - 347.0","?C","346.0","Celsius"
"[O-][N+](=O)C1=C(C=CC(Br)=C1)C#N","-","EN300-104040","4457","4-bromo-2-nitrobenzonitrile","-","A55638","25489863","-","-","91.0 - 93.0","?C","92.0","Celsius"
"NC(=O)C1=CC(F)=C(Br)C=C1","-","EN300-104044","4458","4-bromo-3-fluorobenzamide","-","A55638","25489863","-","-","167.0 - 169.0","?C","168.0","Celsius"
"NS(=O)(=O)C1=CC(=CC(Br)=C1)C#N","-","EN300-104046","4459","3-bromo-5-cyanobenzene-1-sulfonamide","-","A55638","25489863","-","-","199.0 - 201.0","?C","200.0","Celsius"
"CC1=C(C2=C(S1)C=CC(Cl)=C2)S(Cl)(=O)=O","-","EN300-104047","4460","5-chloro-2-methyl-1-benzothiophene-3-sulfonyl chloride","-","A55638","25489863","-","-","148.0 - 150.0","?C","149.0","Celsius"
"CC(=O)OC1=CC=C(CCl)C=C1","-","EN300-104049","4461","4-(Chloromethyl)phenyl acetate","-","A55638","25489863","-","-","29.0 - 31.0","?C","30.0","Celsius"
"COC(=O)C1=CC=C(C=C1)C1=NC(=NO1)C1CC1","-","EN300-104050","4463","methyl 4-(3-cyclopropyl-1,2,4-oxadiazol-5-yl)benzoate","-","A55638","25489863","-","-","100.0 - 102.0","?C","101.0","Celsius"
"ClS(=O)(=O)C1=CC(=CC(Br)=C1)C#N","-","EN300-104051","4464","3-bromo-5-cyanobenzene-1-sulfonyl chloride","-","A55638","25489863","-","-","74.0 - 76.0","?C","75.0","Celsius"
"NC1=C(C=CC=C1)C(=O)NCCCN1CCOCC1","13666-71-2","EN300-10407","4465","2-amino-N-(3-morpholin-4-ylpropyl)benzamide","-","A55638","25489863","-","-","194.0 - 198.0","?C","196.0","Celsius"
"CC(C)(CC1=CC(Cl)=CC=C1)C(O)=O","-","EN300-104073","4466","3-(3-chlorophenyl)-2,2-dimethylpropanoic acid","-","A55638","25489863","-","-","56.0 - 58.0","?C","57.0","Celsius"
"CC1=C(Br)N=C2C=CC=CC2=C1","-","EN300-104076","4469","2-bromo-3-methylquinoline","-","A55638","25489863","-","-","94.0 - 96.0","?C","95.0","Celsius"
"CC(C)(Br)C(=O)NC1=CC=CC=C1","-","EN300-104077","4470","2-Bromo-2-methyl-N-phenylpropanamide","-","A55638","25489863","-","-","82.0 - 84.0","?C","83.0","Celsius"
"CCN(CC)C(=O)CCC(O)=O","-","EN300-104081","4471","3-(diethylcarbamoyl)propanoic acid","-","A55638","25489863","-","-","74.0 - 76.0","?C","75.0","Celsius"
"ClC1=CC2=C(NC(=N2)C2CCCN2)C=C1","-","EN300-104082","4472","5-chloro-2-(pyrrolidin-2-yl)-1H-1,3-benzodiazole","-","A55638","25489863","-","-","124.0 - 126.0","?C","125.0","Celsius"
"OCCOC1CCNCC1","-","EN300-104088","4473","2-(piperidin-4-yloxy)ethan-1-ol","-","A55638","25489863","-","-","61.0 - 63.0","?C","62.0","Celsius"
"CCN(CC)S(=O)(=O)C1=CC(C(O)=O)=C(F)C=C1","-","EN300-10409","4474","5-[(diethylamino)sulfonyl]-2-fluorobenzoic acid","-","A55638","25489863","-","-","161.0 - 163.0","?C","162.0","Celsius"
"CCN(CC)S(=O)(=O)C1=C(OC)C=CC(=C1)C(O)=O","-","EN300-10410","4477","3-[(diethylamino)sulfonyl]-4-methoxybenzoic acid","-","A55638","25489863","-","-","182.0 - 184.0","?C","183.0","Celsius"
"OC(=O)C1=C(Br)C=CC(=C1)S(=O)(=O)N1CCOCC1","-","EN300-10411","4478","2-bromo-5-(morpholin-4-ylsulfonyl)benzoic acid","-","A55638","25489863","-","-","188.0 - 190.0","?C","189.0","Celsius"
"OC(=O)CCNS(=O)(=O)C1=CC2=C(OCCCO2)C=C1","-","EN300-10412","4479","3-[(3,4-dihydro-2H-1,5-benzodioxepin-7-ylsulfonyl)amino]propanoic acid","-","A55638","25489863","-","-","200.0 - 205.0","?C","202.0","Celsius"
"CCN(CC)S(=O)(=O)C1=CC(C(O)=O)=C(Br)C=C1","-","EN300-10413","4480","2-bromo-5-[(diethylamino)sulfonyl]benzoic acid","-","A55638","25489863","-","-","141.0 - 145.0","?C","143.0","Celsius"
"OC(=O)CC1CCCCO1","-","EN300-104135","4481","2-(oxan-2-yl)acetic acid","-","A55638","25489863","-","-","49.0 - 51.0","?C","50.0","Celsius"
"CCS(=O)(=O)C1=C(C=C(Cl)C=C1)C(O)=O","-","EN300-104138","4483","5-chloro-2-(ethanesulfonyl)benzoic acid","-","A55638","25489863","-","-","104.0 - 106.0","?C","105.0","Celsius"
"CC1(CCS(=O)(=O)C1)NC(=O)CCl","-","EN300-10414","4484","2-chloro-N-(3-methyl-1,1-dioxidotetrahydrothien-3-yl)acetamide","-","A55638","25489863","-","-","96.0 - 98.0","?C","97.0","Celsius"
"COC1=C(C=C(N)C=C1)N1N=NN=C1C1CC1","-","EN300-104140","4485","3-(5-cyclopropyl-1H-1,2,3,4-tetrazol-1-yl)-4-methoxyaniline","-","A55638","25489863","-","-","161.0 - 163.0","?C","162.0","Celsius"
"NC1=C(OC2=C1C=CC=C2)C(=O)C1=CC=CS1","-","EN300-10415","4487","(3-amino-1-benzofuran-2-yl)(thien-2-yl)methanone","-","A55638","25489863","-","-","173.0 - 175.0","?C","174.0","Celsius"
"NC(=O)C(O)C1CC1","-","EN300-104159","4488","2-cyclopropyl-2-hydroxyacetamide","-","A55638","25489863","-","-","115.0 - 117.0","?C","116.0","Celsius"
"OCCOC1=CC=C(Br)C=C1","-","EN300-104162","4492","2-(4-bromophenoxy)ethan-1-ol","-","A55638","25489863","-","-","53.0 - 55.0","?C","54.0","Celsius"
"OC(=O)CCCC1=C(Cl)SC(Cl)=C1","-","EN300-104163","4493","4-(2,5-dichlorothiophen-3-yl)butanoic acid","-","A55638","25489863","-","-","42.0 - 44.0","?C","43.0","Celsius"
"OCC1NCCC2=C1C=CC=C2","-","EN300-104167","4495","1,2,3,4-tetrahydroisoquinolin-1-ylmethanol","-","A55638","25489863","-","-","71.0 - 73.0","?C","72.0","Celsius"
"CC1=C(SC2=C1C(=O)NC(CSC1=C(C)C=CC(C)=C1)=N2)C(O)=O","-","EN300-10417","4496","2-{[(2,5-dimethylphenyl)thio]methyl}-5-methyl-4-oxo-3,4-dihydrothieno[2,3-d]pyrimidine-6-carboxylic acid","-","A55638","25489863","-","-","295.0 - 297.0","?C","296.0","Celsius"
"CC1=CC(NC(=O)CCCCl)=CC=C1","73863-44-2","EN300-10418","4497","4-chloro-N-(3-methylphenyl)butanamide","-","A55638","25489863","-","-","137.0 - 139.0","?C","138.0","Celsius"
"CC(NC1=NC(C)=CS1)C(O)=O","-","EN300-104185","4498","2-[(4-methyl-1,3-thiazol-2-yl)amino]propanoic acid","-","A55638","25489863","-","-","189.0 - 191.0","?C","190.0","Celsius"
"COC1=CC(OC)=C(F)C=C1[N+]([O-])=O","-","EN300-104188","4500","1-fluoro-2,4-dimethoxy-5-nitrobenzene","-","A55638","25489863","-","-","152.0 - 154.0","?C","153.0","Celsius"
"CC1=CSC(NCC(O)=O)=N1","-","EN300-104189","4501","2-[(4-methyl-1,3-thiazol-2-yl)amino]acetic acid","-","A55638","25489863","-","-","224.0 - 226.0","?C","225.0","Celsius"
"CN(C)S(=O)(=O)C1=C(C)OC(=C1)C(O)=O","-","EN300-104191","4502","4-(dimethylsulfamoyl)-5-methylfuran-2-carboxylic acid","-","A55638","25489863","-","-","151.0 - 153.0","?C","152.0","Celsius"
"CCOC1=CC=C(C=C1)C1(O)CCCC1","-","EN300-104199","4504","1-(4-ethoxyphenyl)cyclopentan-1-ol","-","A55638","25489863","-","-","88.0 - 90.0","?C","89.0","Celsius"
"O=CC1=CC=C(O1)C1=NC2=C(S1)C=CC=C2","34653-56-0","EN300-10420","4505","5-(1,3-benzothiazol-2-yl)-2-furaldehyde","-","A55638","25489863","-","-","177.0 - 179.0","?C","178.0","Celsius"
"CC1=NN=C(NC(=O)CCl)S1","21521-87-9","EN300-10421","4507","2-chloro-N-(5-methyl-1,3,4-thiadiazol-2-yl)acetamide","-","A55638","25489863","-","-","230.0 - 232.0","?C","231.0","Celsius"
"FC1=C(CS(Cl)(=O)=O)C=C(Cl)C=C1","-","EN300-104243","4508","(5-chloro-2-fluorophenyl)methanesulfonyl chloride","-","A55638","25489863","-","-","45.0 - 47.0","?C","46.0","Celsius"
"ClC1=C2CCCCCC2=NC=N1","-","EN300-104253","4509","4-chloro-5H,6H,7H,8H,9H-cyclohepta[d]pyrimidine","-","A55638","25489863","-","-","50.0 - 52.0","?C","51.0","Celsius"
"CC(C)CC(N1CCCCC1=O)C(O)=O","-","EN300-104254","4510","4-methyl-2-(2-oxopiperidin-1-yl)pentanoic acid","-","A55638","25489863","-","-","182.0 - 184.0","?C","183.0","Celsius"
"CCOC(=O)COC1=C(O)C=CC=C1","-","EN300-104255","4511","ethyl 2-(2-hydroxyphenoxy)acetate","-","A55638","25489863","-","-","51.0 - 53.0","?C","52.0","Celsius"
"CC1=C(C)N=C(CO)O1","-","EN300-104258","4513","(4,5-dimethyl-1,3-oxazol-2-yl)methanol","-","A55638","25489863","-","-","59.0 - 61.0","?C","60.0","Celsius"
"O=CC1=CN=C(S1)C1=NC=CN=C1","-","EN300-104259","4514","2-(pyrazin-2-yl)-1,3-thiazole-5-carbaldehyde","-","A55638","25489863","-","-","159.0 - 161.0","?C","160.0","Celsius"
"CCC1=NSC(S)=N1","-","EN300-104261","4515","3-ethyl-1,2,4-thiadiazole-5-thiol","-","A55638","25489863","-","-","144.0 - 146.0","?C","145.0","Celsius"
"NC(=NO)C1=CC2=C(O1)C=CC=C2","-","EN300-104263","4516","N'-hydroxy-1-benzofuran-2-carboximidamide","-","A55638","25489863","-","-","183.0 - 185.0","?C","184.0","Celsius"
"COC1=C(OCC(O)=O)C=CC(CC=C)=C1","6331-61-9","EN300-10427","4517","(4-allyl-2-methoxyphenoxy)acetic acid","-","A55638","25489863","-","-","169.0 - 172.0","?C","170.0","Celsius"
"CC1=NC=CN1C1=NN=C(Cl)C=C1","-","EN300-104274","4518","3-chloro-6-(2-methyl-1H-imidazol-1-yl)pyridazine","-","A55638","25489863","-","-","122.0 - 124.0","?C","123.0","Celsius"
"NC1=NC2=C(O1)C(Cl)=CC(=C2)C1=CC=CC=C1","-","EN300-104275","4519","7-chloro-5-phenyl-1,3-benzoxazol-2-amine","-","A55638","25489863","-","-","237.0 - 239.0","?C","238.0","Celsius"
"CC(C)CC(CNC(=O)OC(C)(C)C)C(O)=O","-","EN300-104283","4521","2-({[(tert-butoxy)carbonyl]amino}methyl)-4-methylpentanoic acid","-","A55638","25489863","-","-","76.0 - 78.0","?C","77.0","Celsius"
"CC1=NN(C2CCOC2)C(N)=C1","-","EN300-104284","4522","3-methyl-1-(oxolan-3-yl)-1H-pyrazol-5-amine","-","A55638","25489863","-","-","91.0 - 93.0","?C","92.0","Celsius"
"CN1C=C(N)C=C(Br)C1=O","-","EN300-104285","4523","5-amino-3-bromo-1-methyl-1,2-dihydropyridin-2-one","-","A55638","25489863","-","-","159.0 - 161.0","?C","160.0","Celsius"
"CC(O)C1=CC(=C(C)C=C1)[N+]([O-])=O","-","EN300-104286","4524","1-(4-methyl-3-nitrophenyl)ethan-1-ol","-","A55638","25489863","-","-","48.0 - 50.0","?C","49.0","Celsius"
"OC(=O)C(CC1=CNC2=C1C=CC=C2)NS(=O)(=O)C1=CC(=C(Cl)C=C1)C(F)(F)F","-","EN300-10429","4525","2-({[4-chloro-3-(trifluoromethyl)phenyl]sulfonyl}amino)-3-(1H-indol-3-yl)propanoic acid","-","A55638","25489863","-","-","185.0 - 187.0","?C","186.0","Celsius"