"SMILES","CASRN","EXTERNALID","N","NAME","NAME","ARTICLEID","PUBMEDID","PAGE","TABLE","Melting Point {measured}","UNIT {Melting Point}","Melting Point {measured, converted}","UNIT {Melting Point}"
"CC1=C(C=O)N2C=CC=CC2=C1C=O","357317-99-8","EN300-00982","435","2-Methyl-indolizine-1,3-dicarbaldehyde","-","A55638","25489863","-","-","214.0 - 216.0","?C","215.0","Celsius"
"CC1=C(C#N)N2C=CC=CC2=C1C=O","-","EN300-00983","436","1-Formyl-2-methyl-indolizine-3-carbonitrile","-","A55638","25489863","-","-","170.0 - 172.0","?C","171.0","Celsius"
"O=CC1=CN(N=C1C1=CC=CC=C1)C1=CC=CC=C1","21487-45-6","EN300-00988","437","1,3-diphenyl-1H-pyrazole-4-carbaldehyde","-","A55638","25489863","-","-","144.0 - 148.0","?C","146.0","Celsius"
"ClC1=CC=C(C=C1)C1=NN(C=C1C=O)C1=CC=CC=C1","36663-00-0","EN300-00989","438","3-(4-chloro-phenyl)-1-phenyl-1h-pyrazole-4-carbaldehyde","-","A55638","25489863","-","-","125.0 - 127.0","?C","126.0","Celsius"
"O=CC1=CN(N=C1C1=CC=CS1)C1=CC=CC=C1","210825-11-9","EN300-00991","439","1-Phenyl-3-thiophen-2-yl-1H-pyrazole-4-carbaldehyde","-","A55638","25489863","-","-","90.0 - 92.0","?C","91.0","Celsius"
"O=CC1=CN(N=C1C1=CN=CC=C1)C1=CC=CC=C1","36640-50-3","EN300-00992","440","1-Phenyl-3-pyridin-3-yl-1H-pyrazole-4-carbaldehyde","-","A55638","25489863","-","-","110.0 - 112.0","?C","111.0","Celsius"
"CN1C(=CC=O)C(C)(C)C2=C1C=CC=C2","84-83-3","EN300-00993","441","(1,3,3-Trimethyl-1,3-dihydro-indol-2-ylidene)-acetaldehyde","-","A55638","25489863","-","-","93.0 - 95.0","?C","94.0","Celsius"
"CC1=NN(C(N2CCCC2)=C1C=O)C1=CC=CC=C1","-","EN300-00997","442","3-Methyl-1-phenyl-5-pyrrolidin-1-yl-1H-pyrazole-4-carbaldehyde","-","A55638","25489863","-","-","71.0 - 73.0","?C","72.0","Celsius"
"CC1=CC(C=O)=C(C)N1C1=CC=C(Cl)C=C1","20461-26-1","EN300-01000","443","1-(4-Chloro-phenyl)-2,5-dimethyl-1H-pyrrole-3-carbaldehyde","-","A55638","25489863","-","-","123.0 - 125.0","?C","124.0","Celsius"
"CC1=CC(C=O)=C(C)N1C1=CC=C(F)C=C1","119673-50-6","EN300-01001","444","1-(4-Fluoro-phenyl)-2,5-dimethyl-1H-pyrrole-3-carbaldehyde","-","A55638","25489863","-","-","100.0 - 102.0","?C","101.0","Celsius"
"O=CC1=C(CCCC1)SC1=NC2=C(O1)C=CC=C2","-","EN300-01004","445","2-(1,3-benzoxazol-2-ylthio)cyclohex-1-ene-1-carbaldehyde","-","A55638","25489863","-","-","93.0 - 95.0","?C","94.0","Celsius"
"CC1=C(Br)C2=C(CCCC2=O)N1C1=CC=C(C)C=C1","-","EN300-01022","446","3-Bromo-2-methyl-1-p-tolyl-1,5,6,7-tetrahydro-indol-4-one","-","A55638","25489863","-","-","139.0 - 141.0","?C","140.0","Celsius"
"O=C1N(CC2=CC=CC=C2)C2=C(C=CC=C2)C1=O","1217-89-6","EN300-01023","447","1-Benzyl-1H-indole-2,3-dione","-","A55638","25489863","-","-","92.0 - 94.0","?C","93.0","Celsius"
"O=CC1=C(N(C2=C1C=CC=C2)C1=CC=CC=C1)C1=CC=CC=C1","29329-99-5","EN300-01025","448","1,2-Diphenyl-1H-indole-3-carbaldehyde","-","A55638","25489863","-","-","246.0 - 248.0","?C","247.0","Celsius"
"[O-][N+](=O)C1=CC(=CC=C1)C(=O)OC1=CC=C(C=O)C=C1","-","EN300-01027","450","3-Nitro-benzoic acid 4-formyl-phenyl ester","-","A55638","25489863","-","-","143.0 - 145.0","?C","144.0","Celsius"
"CCN(CC1=CC=CC=C1)C1=CC=C(C=O)C=C1","67676-47-5","EN300-01028","451","4-(Benzyl-ethyl-amino)-benzaldehyde","-","A55638","25489863","-","-","38.0 - 42.0","?C","40.0","Celsius"
"COC1=C(OCC2=C(C)C=C(C=C2C)C(C)(C)C)C=CC(C=O)=C1","-","EN300-01029","452","4-(4-tert-Butyl-2,6-dimethyl-benzyloxy)-3-methoxy-benzaldehyde","-","A55638","25489863","-","-","139.0 - 141.0","?C","140.0","Celsius"
"COC1=CC(=CC(OC)=C1OC)C(=O)OC1=CC=C(C=O)C=C1","-","EN300-01030","453","3,4,5-Trimethoxy-benzoic acid 4-formyl-phenyl ester","-","A55638","25489863","-","-","113.0 - 115.0","?C","114.0","Celsius"
"COC1=CC=C(C=C1)C(=O)OC1=C(OC)C=C(C=O)C=C1","5420-38-2","EN300-01031","454","4-Methoxy-benzoic acid 4-formyl-2-methoxy-phenyl ester","-","A55638","25489863","-","-","95.0 - 98.0","?C","96.5","Celsius"
"OCN1C(=O)C(=O)C2=C1C=CC=C2","50899-59-7","EN300-01033","455","1-Hydroxymethyl-1H-indole-2,3-dione","-","A55638","25489863","-","-","157.0 - 159.0","?C","158.0","Celsius"
"O=CC1=C(N=C(S1)N1CCOCC1)C1=CC=CC=C1","129880-85-9","EN300-01034","456","2-Morpholin-4-yl-4-phenyl-thiazole-5-carbaldehyde","-","A55638","25489863","-","-","181.0 - 183.0","?C","182.0","Celsius"
"CCCOC1=CC(OCCC)=C(C=O)C=C1","-","EN300-01036","457","2,4-Dipropoxy-benzaldehyde","-","A55638","25489863","-","-","58.0 - 60.0","?C","59.0","Celsius"
"CC1=NN(C(Cl)=C1C=O)C1=CC=C(F)C=C1","-","EN300-01042","458","5-Chloro-1-(4-fluoro-phenyl)-3-methyl-1H-pyrazole-4-carbaldehyde","-","A55638","25489863","-","-","124.0 - 126.0","?C","125.0","Celsius"
"COC1=CC=C(C=C1)C1=NN(C=C1C=O)C1=CC=CC=C1","36640-42-3","EN300-01043","459","3-(4-Methoxy-phenyl)-1-phenyl-1H-pyrazole-4-carbaldehyde","-","A55638","25489863","-","-","135.0 - 137.0","?C","136.0","Celsius"
"O=CC1=CN(N=C1C1=CC2=C(OC1=O)C=CC=C2)C1=CC=CC=C1","-","EN300-01044","460","3-(2-Oxo-2H-chromen-3-yl)-1-phenyl-1H-pyrazole-4-carbaldehyde","-","A55638","25489863","-","-","223.0 - 225.0","?C","224.0","Celsius"
"COC(=O)C1=CC=C(COC2=C(OC)C=C(C=O)C=C2)C=C1","-","EN300-01046","461","4-(4-Formyl-2-methoxy-phenoxymethyl)-benzoic acid methyl ester","-","A55638","25489863","-","-","129.0 - 131.0","?C","130.0","Celsius"
"O=CC1=CN(N=C1C1=CC2=C(O1)C=CC=C2)C1=CC=CC=C1","-","EN300-01051","463","3-Benzofuran-2-yl-1-phenyl-1H-pyrazole-4-carbaldehyde","-","A55638","25489863","-","-","176.0 - 178.0","?C","177.0","Celsius"
"COC1=C(OC(=O)C2=CC=CS2)C=CC(C=O)=C1","-","EN300-01052","464","Thiophene-2-carboxylic acid 4-formyl-2-methoxy-phenyl ester","-","A55638","25489863","-","-","64.0 - 69.0","?C","66.5","Celsius"
"CC(C)N1C(=O)C(=O)C2=C1C=CC=C2","10487-31-7","EN300-01054","465","1-Isopropyl-1H-indole-2,3-dione","-","A55638","25489863","-","-","77.0 - 79.0","?C","78.0","Celsius"
"COC(=O)C1=CC=C(COC2=C(C=O)C=CC=C2)C=C1","351335-29-0","EN300-01056","466","4-(2-Formyl-phenoxymethyl)-benzoic acid methyl ester","-","A55638","25489863","-","-","90.0 - 92.0","?C","91.0","Celsius"
"COC1=C(OC(=O)C2=CC=C(F)C=C2)C=CC(C=O)=C1","-","EN300-01060","467","4-Fluoro-benzoic acid 4-formyl-2-methoxy-phenyl ester","-","A55638","25489863","-","-","100.0 - 102.0","?C","101.0","Celsius"
"CC(C)CN1C(=O)C(=O)C2=C1C=CC=C2","-","EN300-01062","468","1-Isobutyl-1H-indole-2,3-dione","-","A55638","25489863","-","-","82.0 - 84.0","?C","83.0","Celsius"
"COC1=C(OCC2=C(Cl)C=C(Cl)C=C2)C=CC(C=O)=C1","-","EN300-01065","469","4-(2,4-Dichloro-benzyloxy)-3-methoxy-benzaldehyde","-","A55638","25489863","-","-","114.0 - 116.0","?C","115.0","Celsius"
"COC1=C(OCC2=CC=C(F)C=C2)C=CC(C=O)=C1","321432-05-7","EN300-01066","470","4-(4-Fluoro-benzyloxy)-3-methoxy-benzaldehyde","-","A55638","25489863","-","-","77.0 - 81.0","?C","79.0","Celsius"
"OCCN1CCN(CN2C(=O)C(=O)C3=C2C=CC=C3)CC1","6532-17-8","EN300-01069","471","1-[4-(2-Hydroxy-ethyl)-piperazin-1-ylmethyl]-1H-indole-2,3-dione","-","A55638","25489863","-","-","157.0 - 159.0","?C","158.0","Celsius"
"BrC1=C(C=CC=C1)C(=O)C1=CC=CC=C1","13047-06-8","EN300-01076","472","(2-Bromo-phenyl)-phenyl-methanone","-","A55638","25489863","-","-","72.0 - 74.0","?C","73.0","Celsius"
"CCC(=O)C1=CC=C(OC(F)F)C=C1","-","EN300-01077","473","1-(4-Difluoromethoxy-phenyl)-propan-1-one","-","A55638","25489863","-","-","39.0 - 43.0","?C","41.0","Celsius"
"CCC(=O)C1=CC(OC)=C(OC)C=C1","1835-04-7","EN300-01082","475","1-(3,4-Dimethoxy-phenyl)-propan-1-one","-","A55638","25489863","-","-","61.0 - 63.0","?C","62.0","Celsius"
"CC1=NN(C(OC2=CC=CC=C2)=C1C=O)C1=CC=CC=C1","30241-46-4","EN300-01085","476","3-methyl-5-phenoxy-1-phenyl-1H-pyrazole-4-carbaldehyde","-","A55638","25489863","-","-","92.0 - 94.0","?C","93.0","Celsius"
"ClC1=C(CN2C(=O)C(=O)C3=C2C=CC=C3)C=CC=C1","306279-75-4","EN300-01089","477","1-(2-Chloro-benzyl)-1H-indole-2,3-dione","-","A55638","25489863","-","-","130.0 - 132.0","?C","131.0","Celsius"
"ClC1=CC=C(CN2C(=O)C(=O)C3=C2C=CC=C3)C=C1","26960-66-7","EN300-01090","478","1-(4-Chloro-benzyl)-1H-indole-2,3-dione","-","A55638","25489863","-","-","163.0 - 165.0","?C","164.0","Celsius"
"CC(=O)C1=CC=C(C=C1)C1=CC=C(O1)C=O","57268-39-0","EN300-01094","479","5-(4-Acetyl-phenyl)-furan-2-carbaldehyde","-","A55638","25489863","-","-","133.0 - 135.0","?C","134.0","Celsius"
"CC(=O)C1=CC=C(NS(=O)(=O)C2=CC=C(C)C=C2)C=C1","5317-94-2","EN300-01097","480","N-(4-Acetyl-phenyl)-4-methyl-benzenesulfonamide","-","A55638","25489863","-","-","170.0 - 172.0","?C","171.0","Celsius"
"CC(=O)C1=CC=C(NS(=O)(=O)C2=CC=C(Cl)C=C2)C=C1","72178-38-2","EN300-01098","481","N-(4-Acetyl-phenyl)-4-chloro-benzenesulfonamide","-","A55638","25489863","-","-","132.0 - 134.0","?C","133.0","Celsius"
"OC1=C(C=C(Cl)C=C1C=O)[N+]([O-])=O","16634-90-5","EN300-01100","482","5-Chloro-2-hydroxy-3-nitro-benzaldehyde","-","A55638","25489863","-","-","105.0 - 107.0","?C","106.0","Celsius"
"O=C(CC1=NC2=C(S1)C=CC=C2)C1=CC=CC=C1","56071-71-7","EN300-01101","483","2-Benzothiazol-2-yl-1-phenyl-ethanone","-","A55638","25489863","-","-","113.0 - 115.0","?C","114.0","Celsius"
"FC1=CC=C(C=C1)C1=CC=C(O1)C=O","33342-17-5","EN300-01102","484","5-(4-Fluoro-phenyl)-furan-2-carbaldehyde","-","A55638","25489863","-","-","79.0 - 81.0","?C","80.0","Celsius"
"CCOC(=O)C1=CC=C(C=C1)N1C(C)=CC(C=O)=C1C","52034-37-4","EN300-01106","485","4-(3-Formyl-2,5-dimethyl-pyrrol-1-yl)-benzoic acid ethyl ester","-","A55638","25489863","-","-","113.0 - 115.0","?C","114.0","Celsius"
"COC1=C(OCC(=O)N2CCOCC2)C=CC(C=O)=C1","31438-76-3","EN300-01115","486","3-Methoxy-4-(2-morpholin-4-yl-2-oxo-ethoxy)-benzaldehyde","-","A55638","25489863","-","-","98.0 - 100.0","?C","99.0","Celsius"
"O=CC1=C(N2CCOCC2)C(CC1)=CC1=CC=CC=C1","-","EN300-01121","487","3-Benzylidene-2-morpholin-4-yl-cyclopent-1-enecarbaldehyde","-","A55638","25489863","-","-","141.0 - 143.0","?C","142.0","Celsius"
"CC1=NN(C(OC2=CC=C(F)C=C2)=C1C=O)C1=CC=CC=C1","-","EN300-01124","488","5-(4-Fluoro-phenoxy)-3-methyl-1-phenyl-1H-pyrazole-4-carbaldehyde","-","A55638","25489863","-","-","105.0 - 107.0","?C","106.0","Celsius"
"FC1=CC(Br)=C2NC(=O)C(=O)C2=C1","-","EN300-01129","489","7-Bromo-5-fluoro-1H-indole-2,3-dione","-","A55638","25489863","-","-","215.0 - 217.0","?C","216.0","Celsius"
"COC1=CC2=C(C=C1)C=C(C=O)C(Cl)=N2","68236-20-4","EN300-01132","490","2-Chloro-7-methoxy-quinoline-3-carbaldehyde","-","A55638","25489863","-","-","84.0 - 86.0","?C","85.0","Celsius"
"O=C(CC1=NC2=C(N1)C=CC=C2)C1=CC=CC=C1","66838-69-5","EN300-01139","492","2-(1H-Benzoimidazol-2-yl)-1-phenyl-ethanone","-","A55638","25489863","-","-","180.0 - 182.0","?C","181.0","Celsius"
"CC1=CC=C(O1)C1=NN(C=C1C=O)C1=CC=CC=C1","210825-08-4","EN300-01143","493","3-(5-Methyl-furan-2-yl)-1-phenyl-1H-pyrazole-4-carbaldehyde","-","A55638","25489863","-","-","112.0 - 114.0","?C","113.0","Celsius"
"ClC1=C(SC(NC2=CC=CC=C2)=N1)C=O","126193-27-9","EN300-01145","494","4-Chloro-2-phenylamino-thiazole-5-carbaldehyde","-","A55638","25489863","-","-","164.0 - 166.0","?C","165.0","Celsius"
"CCOCCN1C(=O)C(=O)C2=C1C=CC=C2","-","EN300-01154","495","1-(2-ethoxyethyl)-1H-indole-2,3-dione","-","A55638","25489863","-","-","65.0 - 67.0","?C","66.0","Celsius"
"[O-][N+](=O)C1=C(C=CC(Cl)=C1)C1=CC=C(O1)C=O","480439-09-6","EN300-01158","497","5-(4-Chloro-2-nitro-phenyl)-furan-2-carbaldehyde","-","A55638","25489863","-","-","92.0 - 94.0","?C","93.0","Celsius"
"CCC1=C2NC=C(C=O)C2=CC=C1","154989-45-4","EN300-01159","498","7-Ethyl-1H-indole-3-carbaldehyde","-","A55638","25489863","-","-","99.0 - 101.0","?C","100.0","Celsius"
"CCN(CC)S(=O)(=O)C1=CC=C(C=C1)C1=CC=C(O1)C=O","-","EN300-01161","499","N,N-Diethyl-4-(5-formyl-furan-2-yl)-benzenesulfonamide","-","A55638","25489863","-","-","119.0 - 121.0","?C","120.0","Celsius"
"CC(C)C1=CC2=C(NC(=O)C2=O)C=C1","150560-58-0","EN300-01163","501","5-Isopropyl-1H-indole-2,3-dione","-","A55638","25489863","-","-","93.0 - 95.0","?C","94.0","Celsius"
"BrC1=CC=C(C=C1)C1=NN(C=C1C=O)C1=CC=CC=C1","36640-41-2","EN300-01165","502","3-(4-Bromo-phenyl)-1-phenyl-1H-pyrazole-4-carbaldehyde","-","A55638","25489863","-","-","141.0 - 143.0","?C","142.0","Celsius"
"BrC1=CC(=CC=C1)C1=NN(C=C1C=O)C1=CC=CC=C1","-","EN300-01166","503","3-(3-Bromo-phenyl)-1-phenyl-1H-pyrazole-4-carbaldehyde","-","A55638","25489863","-","-","91.0 - 93.0","?C","92.0","Celsius"
"ClC1=CC(C2=CC=C(O2)C=O)=C(Cl)C=C1","99113-89-0","EN300-01172","504","5-(2,5-Dichloro-phenyl)-furan-2-carbaldehyde","-","A55638","25489863","-","-","84.0 - 86.0","?C","85.0","Celsius"
"COC1=C(OS(=O)(=O)C2=C(C)C=CC(C)=C2)C=CC(C=O)=C1","-","EN300-01175","506","2,5-Dimethyl-benzenesulfonic acid 4-formyl-2-methoxy-phenyl ester","-","A55638","25489863","-","-","82.0 - 84.0","?C","83.0","Celsius"
"FC(F)(F)C1=C(Cl)C=CC(=C1)C1=CC=C(O1)C=O","-","EN300-01176","507","5-(4-Chloro-3-trifluoromethyl-phenyl)-furan-2-carbaldehyde","-","A55638","25489863","-","-","74.0 - 76.0","?C","75.0","Celsius"
"COC(=O)C1=C(C=CC=C1)C1=CC=C(O1)C=O","-","EN300-01177","508","2-(5-Formyl-furan-2-yl)-benzoic acid methyl ester","-","A55638","25489863","-","-","68.0 - 72.0","?C","70.0","Celsius"
"CC1=CC(C)=C2C(NC(=O)C2=O)=C1","49820-06-6","EN300-01180","509","4,6-Dimethyl-1H-indole-2,3-dione","-","A55638","25489863","-","-","233.0 - 235.0","?C","234.0","Celsius"
"CC1=C(C)C2=C(C=C1)C(=O)C(=O)N2","20205-43-0","EN300-01181","510","6,7-Dimethyl-1H-indole-2,3-dione","-","A55638","25489863","-","-","228.0 - 232.0","?C","230.0","Celsius"
"NS(=O)(=O)C1=CC=CS1","6339-87-3","EN300-01183","511","Thiophene-2-sulfonic acid amide","-","A55638","25489863","-","-","142.0 - 144.0","?C","143.0","Celsius"
"CCOC1=CC=C(C=C1)S(N)(=O)=O","1132-19-0","EN300-01184","512","4-Ethoxy-benzenesulfonamide","-","A55638","25489863","-","-","152.0 - 154.0","?C","153.0","Celsius"
"NS(=O)(=O)C1=CC(NC(=O)C2=C(Cl)C=CC=C2)=CC=C1","-","EN300-01185","513","2-Chloro-N-(3-sulfamoyl-phenyl)-benzamide","-","A55638","25489863","-","-","93.0 - 96.0","?C","94.5","Celsius"
"NS(=O)(=O)C1=CC(=C(Cl)C=C1)[N+]([O-])=O","97-09-6","EN300-01188","514","4-Chloro-3-nitro-benzenesulfonamide","-","A55638","25489863","-","-","132.0 - 133.0","?C","132.0","Celsius"
"NS(=O)(=O)C1=C(Cl)C=CC(=C1)[N+]([O-])=O","96-72-0","EN300-01189","515","2-Chloro-5-nitro-benzenesulfonamide","-","A55638","25489863","-","-","155.0 - 157.0","?C","156.0","Celsius"
"NC1=C(C=C(C=C1)S(N)(=O)=O)[N+]([O-])=O","2360-19-2","EN300-01192","516","4-Amino-3-nitro-benzenesulfonamide","-","A55638","25489863","-","-","206.0 - 208.0","?C","207.0","Celsius"
"NS(=O)(=O)C1=C(Br)C=CC(Br)=C1","7467-11-0","EN300-01193","517","2,5-Dibromo-benzenesulfonamide","-","A55638","25489863","-","-","199.0 - 201.0","?C","200.0","Celsius"
"NS(=O)(=O)C1=CC2=C(OCCO2)C=C1","90222-81-4","EN300-01196","518","2,3-Dihydro-benzo[1,4]dioxine-6-sulfonic acid amide","-","A55638","25489863","-","-","197.0 - 199.0","?C","198.0","Celsius"
"CC1=CC(C)=C(C(C)=C1)S(=O)(=O)NC1=CC(=CC=C1)C(F)(F)F","200933-14-8","EN300-01199","519","2,4,6-Trimethyl-N-(3-trifluoromethyl-phenyl)-benzenesulfonamide","-","A55638","25489863","-","-","88.0 - 90.0","?C","89.0","Celsius"
"CC1=NN(C(C)=C1)C1=CC=C(C=C1)S(N)(=O)=O","955-15-7","EN300-01205","520","4-(3,5-Dimethyl-pyrazol-1-yl)-benzenesulfonamide","-","A55638","25489863","-","-","243.0 - 245.0","?C","244.0","Celsius"
"NC1=C(O)C=CC(=C1)S(N)(=O)=O","98-32-8","EN300-01211","521","3-Amino-4-hydroxy-benzenesulfonamide","-","A55638","25489863","-","-","199.0 - 201.0","?C","200.0","Celsius"
"NS(=O)(=O)C1=C(Cl)C=CC(Cl)=C1","7720-45-8","EN300-01213","522","2,5-Dichloro-benzenesulfonamide","-","A55638","25489863","-","-","179.0 - 181.0","?C","180.0","Celsius"
"CCOC1=C(C=C(Br)C=C1)S(N)(=O)=O","-","EN300-01214","523","5-Bromo-2-ethoxy-benzenesulfonamide","-","A55638","25489863","-","-","143.0 - 145.0","?C","144.0","Celsius"
"CC1=C(C=C(C=C1)C(C)(C)C)S(N)(=O)=O","7155-00-2","EN300-01215","524","5-tert-Butyl-2-methyl-benzenesulfonamide","-","A55638","25489863","-","-","138.0 - 140.0","?C","139.0","Celsius"
"NS(=O)(=O)C1=CC(NC(=O)C2=CC=C(Cl)C=C2)=CC=C1","-","EN300-01216","525","4-Chloro-N-(3-sulfamoyl-phenyl)-benzamide","-","A55638","25489863","-","-","93.0 - 96.0","?C","94.5","Celsius"
"CC1=CC(=C(C)C=C1)S(N)(=O)=O","6292-58-6","EN300-01218","526","2,5-Dimethyl-benzenesulfonamide","-","A55638","25489863","-","-","149.0 - 151.0","?C","150.0","Celsius"
"ClC1=C(C=C(C=C1)S(=O)(=O)N1CCOCC1)N=C=S","-","EN300-01231","528","4-(4-Chloro-3-isothiocyanato-benzenesulfonyl)-morpholine","-","A55638","25489863","-","-","118.0 - 120.0","?C","119.0","Celsius"
"CN1N(C(=O)C(N=C=S)=C1C)C1=CC=CC=C1","91397-03-4","EN300-01233","529","4-Isothiocyanato-1,5-dimethyl-2-phenyl-1,2-dihydro-pyrazol-3-one","-","A55638","25489863","-","-","145.0 - 147.0","?C","146.0","Celsius"
"O=S(=O)(N1CCOCC1)C1=CC=C(C=C1)N=C=S","7356-55-0","EN300-01234","530","4-(4-Isothiocyanato-benzenesulfonyl)-morpholine","-","A55638","25489863","-","-","99.0 - 101.0","?C","100.0","Celsius"
"CN(C)S(=O)(=O)C1=CC(=CC=C1)N=C=S","-","EN300-01236","531","3-Isothiocyanato-N,N-dimethyl-benzenesulfonamide","-","A55638","25489863","-","-","47.0 - 49.0","?C","48.0","Celsius"
"CN(C)CCN=C=S","7097-89-4","EN300-01252","533","(2-Isothiocyanato-ethyl)-dimethyl-amine","-","A55638","25489863","-","-","35.0 - 37.0","?C","36.0","Celsius"
"CC1=CC2=C(C=C1)N=C(S2)C1=CC=C(C=C1)N=C=S","38985-69-2","EN300-01255","534","2-(4-Isothiocyanato-phenyl)-6-methyl-benzothiazole","-","A55638","25489863","-","-","243.0 - 245.0","?C","244.0","Celsius"
"CCN1C2=C(C=CC=C2)C2=C1C=CC(=C2)N=C=S","-","EN300-01259","536","9-Ethyl-3-isothiocyanato-9H-carbazole","-","A55638","25489863","-","-","118.0 - 120.0","?C","119.0","Celsius"
"CCOC(=O)C1=C(SC(C)=C1C)N=C=S","85716-85-4","EN300-01271","537","ethyl 2-isothiocyanato-4,5-dimethylthiophene-3-carboxylate","-","A55638","25489863","-","-","67.0 - 69.0","?C","68.0","Celsius"
"FC(F)(F)C(=O)CC(=O)C1=CC=NC=C1","399-06-4","EN300-01274","538","4,4,4-Trifluoro-1-pyridin-4-yl-butane-1,3-dione","-","A55638","25489863","-","-","255.0 - 257.0","?C","256.0","Celsius"
"CN1C(CC#N)=NC2=C1C=CC=C2","2735-62-8","EN300-01281","539","(1-Methyl-1H-benzoimidazol-2-yl)-acetonitrile","-","A55638","25489863","-","-","129.0 - 131.0","?C","130.0","Celsius"
"CC1CCC2=C(C1)SC(N)=C2C#N","42225-04-7","EN300-01282","540","2-Amino-6-methyl-4,5,6,7-tetrahydro-benzo[b]thiophene-3-carbonitrile","-","A55638","25489863","-","-","145.0 - 147.0","?C","146.0","Celsius"
"C(C1=NC2=C(N1)C=CC=C2)C1=NC2=C(S1)C=CC=C2","-","EN300-01291","541","2-(1H-Benzoimidazol-2-ylmethyl)-benzothiazole","-","A55638","25489863","-","-","194.0 - 196.0","?C","195.0","Celsius"
"CC1=C(NC(=O)CC#N)C=CC=C1","59736-34-4","EN300-01296","542","2-Cyano-N-o-tolyl-acetamide","-","A55638","25489863","-","-","133.0 - 135.0","?C","134.0","Celsius"
"O=C(CC#N)NCC1=CC=CC=C1","10412-93-8","EN300-01297","543","N-Benzyl-2-cyano-acetamide","-","A55638","25489863","-","-","125.0 - 127.0","?C","126.0","Celsius"
"CCOC(=O)C1=CC2=C(C=C1)N(CC)C(C)=N2","92108-02-6","EN300-01301","544","1-Ethyl-2-methyl-1H-benzoimidazole-5-carboxylic acid ethyl ester","-","A55638","25489863","-","-","70.0 - 72.0","?C","71.0","Celsius"
"CCOCCCNC(=O)CC#N","15029-47-7","EN300-01303","545","2-Cyano-N-(3-ethoxy-propyl)-acetamide","-","A55638","25489863","-","-","45.0 - 49.0","?C","47.0","Celsius"
"COC1=CC(NC(=O)CC#N)=CC=C1","91818-29-0","EN300-01307","546","2-Cyano-N-(3-methoxy-phenyl)-acetamide","-","A55638","25489863","-","-","154.0 - 156.0","?C","155.0","Celsius"
"O=C(CC#N)NC1CCCCC1","15029-38-6","EN300-01309","547","2-Cyano-N-cyclohexyl-acetamide","-","A55638","25489863","-","-","132.0 - 134.0","?C","133.0","Celsius"
"O=C(CC#N)NCCC1=CC=CC=C1","51838-02-9","EN300-01313","548","2-Cyano-N-phenethyl-acetamide","-","A55638","25489863","-","-","91.0 - 93.0","?C","92.0","Celsius"
"CC1=NN(C(=O)C1)C1=CC(=CC=C1)C(F)(F)F","321-05-1","EN300-01316","549","5-Methyl-2-(3-trifluoromethyl-phenyl)-2,4-dihydro-pyrazol-3-one","-","A55638","25489863","-","-","127.0 - 129.0","?C","128.0","Celsius"
"O=C(CC#N)NCCN1CCOCC1","15029-26-2","EN300-01320","550","2-Cyano-N-(2-morpholin-4-yl-ethyl)-acetamide","-","A55638","25489863","-","-","68.0 - 75.0","?C","71.5","Celsius"