"SMILES","CASRN","EXTERNALID","N","NAME","NAME","ARTICLEID","PUBMEDID","PAGE","TABLE","Melting Point {measured}","UNIT {Melting Point}","Melting Point {measured, converted}","UNIT {Melting Point}"
"CNC(=O)NC(=O)C(C)Cl","-","EN300-05825","2059","1-(2-Chloro-propionyl)-3-methyl-urea","-","A55638","25489863","-","-","118.0 - 120.0","?C","119.0","Celsius"
"COC1=C(NC2=C(N)C=C(C=C2)[N+]([O-])=O)C=CC=C1","-","EN300-05835","2060","N*1*-(2-Methoxy-phenyl)-4-nitro-benzene-1,2-diamine","-","A55638","25489863","-","-","149.0 - 151.0","?C","150.0","Celsius"
"OC(=O)COC1=CC2=C(C=C1)C1=C(CCC1)C(=O)O2","-","EN300-05836","2061","(4-Oxo-1,2,3,4-tetrahydro-cyclopenta[c]chromen-7-yloxy)-acetic acid","-","A55638","25489863","-","-","170.0 - 172.0","?C","171.0","Celsius"
"CC1=C(OC2=C1C=CC=C2)C(=O)NN","53524-81-5","EN300-05839","2062","3-Methyl-benzofuran-2-carboxylic acid hydrazide","-","A55638","25489863","-","-","139.0 - 141.0","?C","140.0","Celsius"
"CCOC(=O)C1=C(N)SC(C(=O)OCCOC)=C1C","-","EN300-05842","2063","5-Amino-3-methyl-thiophene-2,4-dicarboxylic acid 4-ethyl ester 2-(2-methoxy-ethyl) ester","-","A55638","25489863","-","-","118.0 - 120.0","?C","119.0","Celsius"
"CCCN1CCC2=C(C1)SC(N)=C2C(=O)OCC","-","EN300-05843","2064","2-Amino-6-propyl-4,5,6,7-tetrahydro-thieno[2,3-c]pyridine-3-carboxylic acid ethyl ester","-","A55638","25489863","-","-","69.0 - 73.0","?C","71.0","Celsius"
"CC1=C(SC2=C1C(=O)NC=N2)C(O)=O","101667-97-4","EN300-05849","2065","5-Methyl-4-oxo-3,4-dihydro-thieno[2,3-d]pyrimidine-6-carboxylic acid","-","A55638","25489863","-","-","248.0 - 252.0","?C","250.0","Celsius"
"OC(=O)C1=NN(C(=N1)C1=CC=CC=C1)C1=CC=CC=C1","24058-92-2","EN300-05853","2066","1,5-Diphenyl-1H-[1,2,4]triazole-3-carboxylic acid","-","A55638","25489863","-","-","177.0 - 181.0","?C","179.0","Celsius"
"CCOC1=C(OCC2=C(Cl)C=CC=C2Cl)C=CC(C=O)=C1","568556-77-4","EN300-05862","2067","4-(2,6-Dichloro-benzyloxy)-3-ethoxy-benzaldehyde","-","A55638","25489863","-","-","115.0 - 117.0","?C","116.0","Celsius"
"NN1C(=O)NC2=C(C=CC=C2)C1=O","30386-01-7","EN300-05863","2068","3-Amino-1H-quinazoline-2,4-dione","-","A55638","25489863","-","-","297.0 - 299.0","?C","298.0","Celsius"
"CCCOC1=C(OCC)C=C(C=CC(O)=O)C=C1","92864-99-8","EN300-05865","2069","3-(3-Ethoxy-4-propoxy-phenyl)-acrylic acid","-","A55638","25489863","-","-","149.0 - 151.0","?C","150.0","Celsius"
"NC1=C(C=C2OCCOC2=C1)[N+]([O-])=O","62140-78-7","EN300-05866","2070","7-Nitro-2,3-dihydro-benzo[1,4]dioxin-6-ylamine","-","A55638","25489863","-","-","150.0 - 152.0","?C","151.0","Celsius"
"OC1=NSN=C1N1CCOCC1","30165-97-0","EN300-05872","2071","4-Morpholin-4-yl-[1,2,5]thiadiazol-3-ol","-","A55638","25489863","-","-","192.0 - 194.0","?C","193.0","Celsius"
"CC1(C)NC2=C(NC1=O)C=CC=C2","80636-30-2","EN300-05878","2072","3,3-Dimethyl-3,4-dihydro-1H-quinoxalin-2-one","-","A55638","25489863","-","-","179.0 - 181.0","?C","180.0","Celsius"
"CCOC(=O)C1=CC=C(C=C1)S(=O)(=O)N1CCNCC1","-","EN300-05880","2073","4-(Piperazine-1-sulfonyl)-benzoic acid ethyl ester","-","A55638","25489863","-","-","94.0 - 96.0","?C","95.0","Celsius"
"CCOC1=C(OCCOC2=CC=C(F)C=C2)C=CC(C=CC(O)=O)=C1","-","EN300-05881","2074","3-{3-Ethoxy-4-[2-(4-fluoro-phenoxy)-ethoxy]-phenyl}-acrylic acid","-","A55638","25489863","-","-","105.0 - 107.0","?C","106.0","Celsius"
"COC1=CC(OC)=C(NC(=O)C2=C(N)C=CC=C2)C=C1","93988-27-3","EN300-05894","2075","2-Amino-N-(2,4-dimethoxy-phenyl)-benzamide","-","A55638","25489863","-","-","154.0 - 156.0","?C","155.0","Celsius"
"CC1=NN(CC2=CC=CC=C2)C(C)=C1C(O)=O","108444-25-3","EN300-05897","2076","1-Benzyl-3,5-dimethyl-1H-pyrazole-4-carboxylic acid","-","A55638","25489863","-","-","137.0 - 139.0","?C","138.0","Celsius"
"CC1=CC=C(NC(=O)CC(N)=NO)C=C1","61239-35-8","EN300-05900","2077","2-(N-Hydroxycarbamimidoyl)-N-p-tolyl-acetamide","-","A55638","25489863","-","-","168.0 - 170.0","?C","169.0","Celsius"
"CN(C)C1=CC=C(C=C(C#N)C(O)=O)C=C1","-","EN300-05905","2078","2-Cyano-3-(4-dimethylamino-phenyl)-acrylic acid","-","A55638","25489863","-","-","224.0 - 226.0","?C","225.0","Celsius"
"COC1=C(C=CC=C1)C(=O)NCC(O)=O","13443-58-8","EN300-05906","2079","(2-Methoxy-benzoylamino)-acetic acid","-","A55638","25489863","-","-","69.0 - 71.0","?C","70.0","Celsius"
"NC1=NC(SCC2=CC=CC=C2)=NS1","83757-08-8","EN300-05914","2080","3-Benzylsulfanyl-[1,2,4]thiadiazol-5-ylamine","-","A55638","25489863","-","-","104.0 - 106.0","?C","105.0","Celsius"
"CC(OC1=CC=C(C)C=C1)C(O)=O","22504-83-2","EN300-05922","2081","2-p-Tolyloxy-propionic acid","-","A55638","25489863","-","-","101.0 - 103.0","?C","102.0","Celsius"
"CCOC1=C(OCC(C)C)C=CC(C=CC(O)=O)=C1","-","EN300-05923","2082","3-(3-Ethoxy-4-isobutoxy-phenyl)-acrylic acid","-","A55638","25489863","-","-","72.0 - 74.0","?C","73.0","Celsius"
"CC1=C(C)C(NC(=O)C=NO)=CC=C1","6579-44-8","EN300-05925","2083","N-(2,3-Dimethyl-phenyl)-2-hydroxyimino-acetamide","-","A55638","25489863","-","-","110.0 - 112.0","?C","111.0","Celsius"
"O=C(CC#N)C1=CNC2=C1C=CC=C2","20356-45-0","EN300-05930","2085","3-(1H-Indol-3-yl)-3-oxo-propionitrile","-","A55638","25489863","-","-","243.0 - 245.0","?C","244.0","Celsius"
"OC1=C(C=CC=C1)C(=O)N1CCCCC1","2890-83-7","EN300-05931","2086","(2-Hydroxy-phenyl)-piperidin-1-yl-methanone","-","A55638","25489863","-","-","133.0 - 135.0","?C","134.0","Celsius"
"CCOC1=C(C=NO)C=CC=C1","-","EN300-05933","2087","2-Ethoxy-benzaldehyde oxime","-","A55638","25489863","-","-","64.0 - 66.0","?C","65.0","Celsius"
"ON=CC(=O)NC1=CC2=C(OCCO2)C=C1","-","EN300-05935","2088","N-(2,3-Dihydro-benzo[1,4]dioxin-6-yl)-2-hydroxyimino-acetamide","-","A55638","25489863","-","-","130.0 - 132.0","?C","131.0","Celsius"
"COC1=C(OC(F)F)C=CC(C=NO)=C1","-","EN300-05937","2089","4-Difluoromethoxy-3-methoxy-benzaldehyde oxime","-","A55638","25489863","-","-","57.0 - 59.0","?C","58.0","Celsius"
"COC1=C(C=NO)C=CC=C1","29577-53-5","EN300-05938","2090","2-Methoxy-benzaldehyde oxime","-","A55638","25489863","-","-","86.0 - 88.0","?C","87.0","Celsius"
"CCCCNC(=O)CC(N)=NO","-","EN300-05943","2092","N-Butyl-2-(N-hydroxycarbamimidoyl)-acetamide","-","A55638","25489863","-","-","95.0 - 99.0","?C","97.0","Celsius"
"NC1=C(C=CC=C1)C(=O)NC1=CC2=C(OCCO2)C=C1","-","EN300-05945","2093","2-Amino-N-(2,3-dihydro-benzo[1,4]dioxin-6-yl)-benzamide","-","A55638","25489863","-","-","117.0 - 119.0","?C","118.0","Celsius"
"SC1=NN=C(O1)C1=C(Br)C=CC=C1","-","EN300-05949","2094","5-(2-Bromo-phenyl)-[1,3,4]oxadiazole-2-thiol","-","A55638","25489863","-","-","200.0 - 202.0","?C","201.0","Celsius"
"CN(C)S(=O)(=O)C1=CC(=CC=C1)C1=NN=C(S)N1N","-","EN300-05951","2095","3-(4-Amino-5-mercapto-4H-[1,2,4]triazol-3-yl)-N,N-dimethyl-benzenesulfonamide","-","A55638","25489863","-","-","200.0 - 202.0","?C","201.0","Celsius"
"COC1=C(C=CC=C1)S(Cl)(=O)=O","10130-87-7","EN300-05954","2096","2-Methoxy-benzenesulfonyl chloride","-","A55638","25489863","-","-","115.0 - 119.0","?C","117.0","Celsius"
"CCOC1=CC2=C(OC(C(O)=O)=C2C)C=C1","-","EN300-05955","2097","5-Ethoxy-3-methyl-benzofuran-2-carboxylic acid","-","A55638","25489863","-","-","155.0 - 165.0","?C","160.0","Celsius"
"NN1C(S)=NN=C1C1=C(F)C=CC=C1","-","EN300-05959","2098","4-Amino-5-(2-fluoro-phenyl)-4H-[1,2,4]triazole-3-thiol","-","A55638","25489863","-","-","184.0 - 186.0","?C","185.0","Celsius"
"CC(OC1=CC(C)=CC=C1)C(O)=O","25140-95-8","EN300-05963","2099","2-m-Tolyloxy-propionic acid","-","A55638","25489863","-","-","85.0 - 87.0","?C","86.0","Celsius"
"CC1=CC(C)=C(C)C=C1C1=CSC(N)=N1","-","EN300-05970","2100","4-(2,4,5-Trimethyl-phenyl)-thiazol-2-ylamine","-","A55638","25489863","-","-","252.0 - 254.0","?C","253.0","Celsius"
"CC(Cl)C(=O)C1=CC=C(C=C1)C(C)(C)C","59477-82-6","EN300-05971","2101","1-(4-tert-Butyl-phenyl)-2-chloro-propan-1-one","-","A55638","25489863","-","-","18.0 - 20.0","?C","19.0","Celsius"
"CC(C)CN1N=C(C(O)=O)C2=C(C=CC=C2)C1=O","-","EN300-05977","2104","3-Isobutyl-4-oxo-3,4-dihydro-phthalazine-1-carboxylic acid","-","A55638","25489863","-","-","171.0 - 173.0","?C","172.0","Celsius"
"CCCCCN1N=C(C(O)=O)C2=C(C=CC=C2)C1=O","-","EN300-05978","2105","4-Oxo-3-pentyl-3,4-dihydro-phthalazine-1-carboxylic acid","-","A55638","25489863","-","-","144.0 - 146.0","?C","145.0","Celsius"
"CC(C)N1N=C(C(O)=O)C2=C(C=CC=C2)C1=O","-","EN300-05979","2106","3-Isopropyl-4-oxo-3,4-dihydro-phthalazine-1-carboxylic acid","-","A55638","25489863","-","-","142.0 - 144.0","?C","143.0","Celsius"
"COC(=O)C1=NNC(=O)C2=C1C=CC=C2","53960-10-4","EN300-05980","2107","4-Oxo-3,4-dihydro-phthalazine-1-carboxylic acid methyl ester","-","A55638","25489863","-","-","127.0 - 129.0","?C","128.0","Celsius"
"CN(C)S(=O)(=O)C1=CC=C(NC(=O)CCl)C=C1","23280-39-9","EN300-05987","2108","2-Chloro-N-(4-dimethylsulfamoyl-phenyl)-acetamide","-","A55638","25489863","-","-","115.0 - 117.0","?C","116.0","Celsius"
"CC(Cl)C(=O)NC(N)=O","24224-16-6","EN300-05997","2110","(2-Chloro-propionyl)-urea","-","A55638","25489863","-","-","159.0 - 161.0","?C","160.0","Celsius"
"OC(=O)C1CN(C(=O)C1)C1=CC2=C(OCCO2)C=C1","-","EN300-06000","2111","1-(2,3-Dihydro-benzo[1,4]dioxin-6-yl)-5-oxo-pyrrolidine-3-carboxylic acid","-","A55638","25489863","-","-","221.0 - 223.0","?C","222.0","Celsius"
"CCOC1=C(C=CC=C1)N1CC(CC1=O)C(O)=O","-","EN300-06001","2112","1-(2-Ethoxy-phenyl)-5-oxo-pyrrolidine-3-carboxylic acid","-","A55638","25489863","-","-","104.0 - 108.0","?C","106.0","Celsius"
"ON1N=NC2=C1C=CC(=C2)[N+]([O-])=O","-","EN300-06003","2114","5-Nitro-benzotriazol-1-ol","-","A55638","25489863","-","-","200.0 - 202.0","?C","201.0","Celsius"
"CCN(CC)S(=O)(=O)C1=CC(C(O)=O)=C(C=C1)N1CCCCC1","-","EN300-06004","2115","5-Diethylsulfamoyl-2-piperidin-1-yl-benzoic acid","-","A55638","25489863","-","-","157.0 - 159.0","?C","158.0","Celsius"
"CC1=C(COC2=CC(=CC=C2)C(O)=O)C(C)=NO1","-","EN300-06007","2116","3-(3,5-Dimethyl-isoxazol-4-ylmethoxy)-benzoic acid","-","A55638","25489863","-","-","157.0 - 159.0","?C","158.0","Celsius"
"COC1=C(NC(C)=O)C=C(C=C1)S(N)(=O)=O","85605-29-4","EN300-06008","2117","N-(2-Methoxy-5-sulfamoyl-phenyl)-acetamide","-","A55638","25489863","-","-","217.0 - 219.0","?C","218.0","Celsius"
"OC(=O)CCCN1C(=O)CSC1=S","18623-60-4","EN300-06010","2118","4-(4-Oxo-2-thioxo-thiazolidin-3-yl)-butyric acid","-","A55638","25489863","-","-","124.0 - 126.0","?C","125.0","Celsius"
"COC1=C(C=C(NC(C)=O)C=C1)S(N)(=O)=O","-","EN300-06011","2119","N-(4-Methoxy-3-sulfamoyl-phenyl)-acetamide","-","A55638","25489863","-","-","220.0 - 222.0","?C","221.0","Celsius"
"NC(=O)C1COC2=C(O1)C=CC=C2","33070-04-1","EN300-06014","2120","2,3-Dihydro-benzo[1,4]dioxine-2-carboxylic acid amide","-","A55638","25489863","-","-","141.0 - 143.0","?C","142.0","Celsius"
"CC(CC1=NN=C(S)O1)C1=CC=CC=C1","-","EN300-06018","2122","5-(2-Phenyl-propyl)-[1,3,4]oxadiazole-2-thiol","-","A55638","25489863","-","-","102.0 - 104.0","?C","103.0","Celsius"
"CC1=CC(=C(C)C=C1)S(=O)(=O)OC1=C(C=CC=C1)C(O)=O","-","EN300-06021","2123","2-(2,5-Dimethyl-benzenesulfonyloxy)-benzoic acid","-","A55638","25489863","-","-","120.0 - 122.0","?C","121.0","Celsius"
"CCOC1=C(OCC2=C(Cl)C=CC=C2F)C=CC(C=O)=C1","-","EN300-06027","2124","4-(2-Chloro-6-fluoro-benzyloxy)-3-ethoxy-benzaldehyde","-","A55638","25489863","-","-","111.0 - 113.0","?C","112.0","Celsius"
"OC(=O)C1=CC=C(C=C1)N1C=NN=N1","78190-05-3","EN300-06030","2125","4-Tetrazol-1-yl-benzoic acid","-","A55638","25489863","-","-","220.0 - 230.0","?C","225.0","Celsius"
"OC1=CC=C(C=C1)N1C=NN=N1","64001-11-2","EN300-06032","2126","4-Tetrazol-1-yl-phenol","-","A55638","25489863","-","-","209.0 - 211.0","?C","210.0","Celsius"
"NC1=C(SC2=CC=CC=C2)C=CC(Cl)=C1","4235-20-5","EN300-06042","2127","5-Chloro-2-phenylsulfanyl-phenylamine","-","A55638","25489863","-","-","62.0 - 64.0","?C","63.0","Celsius"
"CCCSC1=NSC(N)=N1","6913-15-1","EN300-06044","2128","3-Propylsulfanyl-[1,2,4]thiadiazol-5-ylamine","-","A55638","25489863","-","-","54.0 - 56.0","?C","55.0","Celsius"
"OC(=O)CNS(=O)(=O)C1=CC=CC=C1","5398-96-9","EN300-06046","2129","Benzenesulfonylamino-acetic acid","-","A55638","25489863","-","-","166.0 - 168.0","?C","167.0","Celsius"
"CCNC(=O)NC(=O)C(C)Cl","-","EN300-06047","2130","1-(2-Chloro-propionyl)-3-ethyl-urea","-","A55638","25489863","-","-","126.0 - 128.0","?C","127.0","Celsius"
"CN1C(S)=NN=C1C1=CC=C(F)C=C1","138417-35-3","EN300-06052","2131","5-(4-Fluoro-phenyl)-4-methyl-4H-[1,2,4]triazole-3-thiol","-","A55638","25489863","-","-","111.0 - 115.0","?C","113.0","Celsius"
"SC1=NN=C(N1)C1=C(Br)C=CC=C1","39751-84-3","EN300-06054","2132","5-(2-Bromo-phenyl)-4H-[1,2,4]triazole-3-thiol","-","A55638","25489863","-","-","195.0 - 197.0","?C","196.0","Celsius"
"SC1=NC2=C(O1)C=CC(=C2)S(=O)(=O)N1CCCCC1","-","EN300-06056","2133","5-(Piperidine-1-sulfonyl)-benzooxazole-2-thiol","-","A55638","25489863","-","-","139.0 - 141.0","?C","140.0","Celsius"
"OC(=O)CSC1=NN=C(N1)C1=C(Cl)C=C(Cl)C=C1","-","EN300-06057","2134","[5-(2,4-Dichloro-phenyl)-4H-[1,2,4]triazol-3-ylsulfanyl]-acetic acid","-","A55638","25489863","-","-","161.0 - 163.0","?C","162.0","Celsius"
"SC1=NN=C(C2CC2)N1CC1=CC=CC=C1","-","EN300-06063","2135","4-Benzyl-5-cyclopropyl-4H-[1,2,4]triazole-3-thiol","-","A55638","25489863","-","-","176.0 - 178.0","?C","177.0","Celsius"
"OC1=C(O)C=C2C(CCl)=CC(=O)OC2=C1","85029-91-0","EN300-06067","2136","4-Chloromethyl-6,7-dihydroxy-chromen-2-one","-","A55638","25489863","-","-","178.0 - 180.0","?C","179.0","Celsius"
"FC1=CC=C(C=C1)C1=CSC2=C1C(=O)NC=N2","35978-37-1","EN300-06071","2137","5-(4-Fluoro-phenyl)-3H-thieno[2,3-d]pyrimidin-4-one","-","A55638","25489863","-","-","231.0 - 233.0","?C","232.0","Celsius"
"CSC1=CC=C(C=NO)C=C1","93033-60-4","EN300-06084","2140","4-Methylsulfanyl-benzaldehyde oxime","-","A55638","25489863","-","-","114.0 - 116.0","?C","115.0","Celsius"
"ON=CC1=CC=C(OCC2=CC=CC=C2)C=C1","76193-67-4","EN300-06089","2141","4-Benzyloxy-benzaldehyde oxime","-","A55638","25489863","-","-","109.0 - 111.0","?C","110.0","Celsius"
"COC1=CC=C(C=NO)C=C1","3717-22-4","EN300-06090","2142","4-Methoxy-benzaldehyde oxime","-","A55638","25489863","-","-","64.0 - 66.0","?C","65.0","Celsius"
"CCN(CC)S(=O)(=O)C1=CC(C(O)=O)=C(C=C1)N1CCCC1","-","EN300-06095","2143","5-Diethylsulfamoyl-2-pyrrolidin-1-yl-benzoic acid","-","A55638","25489863","-","-","141.0 - 144.0","?C","142.0","Celsius"
"OC(=O)CNS(=O)(=O)C1=CC(Cl)=C(Cl)C=C1","-","EN300-06096","2144","(3,4-Dichloro-benzenesulfonylamino)-acetic acid","-","A55638","25489863","-","-","127.0 - 129.0","?C","128.0","Celsius"
"CN1C(NC2=C1C=CC=C2)=C(C#N)C(=O)CCl","-","EN300-06107","2146","4-Chloro-2-(1-methyl-1,3-dihydro-benzoimidazol-2-ylidene)-3-oxo-butyronitrile","-","A55638","25489863","-","-","244.0 - 246.0","?C","245.0","Celsius"
"ClCC(=O)NC1=CC2=C(CCC2)C=C1","-","EN300-06108","2147","2-Chloro-N-indan-5-yl-acetamide","-","A55638","25489863","-","-","112.0 - 114.0","?C","113.0","Celsius"
"CCN(CC)S(=O)(=O)C1=C(Cl)C=CC(N)=C1","-","EN300-06109","2148","5-Amino-2-chloro-N,N-diethyl-benzenesulfonamide","-","A55638","25489863","-","-","95.0 - 99.0","?C","97.0","Celsius"
"CC(NS(=O)(=O)C1=CC=C(Cl)C=C1)C(O)=O","-","EN300-06111","2149","2-(4-Chloro-benzenesulfonylamino)-propionic acid","-","A55638","25489863","-","-","136.0 - 138.0","?C","137.0","Celsius"
"COC1=CC(C2=CSC(N)=N2)=C(OC)C=C1","74605-12-2","EN300-06115","2150","4-(2,5-Dimethoxy-phenyl)-thiazol-2-ylamine","-","A55638","25489863","-","-","113.0 - 115.0","?C","114.0","Celsius"
"CC(Cl)C(=O)C1=CC=C(Br)C=C1","87010-95-5","EN300-06116","2151","1-(4-Bromo-phenyl)-2-chloro-propan-1-one","-","A55638","25489863","-","-","54.0 - 56.0","?C","55.0","Celsius"
"NNC(=O)C1=CC2=C(C=C1)C(=O)N1CCCC1=N2","-","EN300-06122","2153","9-Oxo-1,2,3,9-tetrahydro-pyrrolo[2,1-b]quinazoline-6-carboxylic acid hydrazide","-","A55638","25489863","-","-","268.0 - 270.0","?C","269.0","Celsius"
"COC1=C(NC(=O)C2=C(NC(=O)CCC(O)=O)C=CC=C2)C=CC=C1","-","EN300-06123","2154","N-[2-(2-Methoxy-phenylcarbamoyl)-phenyl]-succinamic acid","-","A55638","25489863","-","-","127.0 - 129.0","?C","128.0","Celsius"
"COC1=C(C=C(C)C=C1)C1=NN=C(S)N1N","-","EN300-06141","2155","4-Amino-5-(2-methoxy-5-methyl-phenyl)-4H-[1,2,4]triazole-3-thiol","-","A55638","25489863","-","-","247.0 - 249.0","?C","248.0","Celsius"
"NN1C(S)=NN=C1CC1=C(F)C=CC=C1","-","EN300-06143","2156","4-Amino-5-(2-fluoro-benzyl)-4H-[1,2,4]triazole-3-thiol","-","A55638","25489863","-","-","158.0 - 161.0","?C","160.0","Celsius"
"CC(Cl)C(=O)NC(=O)NC1CCCCC1","-","EN300-06144","2157","1-(2-Chloro-propionyl)-3-cyclohexyl-urea","-","A55638","25489863","-","-","98.0 - 100.0","?C","99.0","Celsius"
"CC1=C(C2=C(S1)N=C(CCl)NC2=O)C1=CC=CC=C1","-","EN300-06145","2158","2-Chloromethyl-6-methyl-5-phenyl-3H-thieno[2,3-d]pyrimidin-4-one","-","A55638","25489863","-","-","259.0 - 261.0","?C","260.0","Celsius"
"OC(=O)C1=C(C=CC(=C1)S(=O)(=O)N1CCOCC1)N1CCCCC1","-","EN300-06149","2159","5-(Morpholine-4-sulfonyl)-2-piperidin-1-yl-benzoic acid","-","A55638","25489863","-","-","179.0 - 181.0","?C","180.0","Celsius"
"CC1=CSC(SC2=C(C=C(C=C2)C(O)=O)[N+]([O-])=O)=N1","-","EN300-06150","2160","4-(4-Methyl-thiazol-2-ylsulfanyl)-3-nitro-benzoic acid","-","A55638","25489863","-","-","207.0 - 210.0","?C","208.0","Celsius"
"CC1=C(C)C=C2C(CCl)=CC(=O)OC2=C1","146463-74-3","EN300-06152","2161","4-Chloromethyl-6,7-dimethyl-chromen-2-one","-","A55638","25489863","-","-","188.0 - 190.0","?C","189.0","Celsius"
"OC(=O)C(Br)C12CC3CC(CC(C3)C1)C2","-","EN300-06153","2162","Adamantan-1-yl-bromo-acetic acid","-","A55638","25489863","-","-","162.0 - 166.0","?C","164.0","Celsius"
"CN(CC(O)=O)S(=O)(=O)C1=CC=C(NC(C)=O)C=C1","99842-24-7","EN300-06154","2163","[(4-Acetylamino-benzenesulfonyl)-methyl-amino]-acetic acid","-","A55638","25489863","-","-","225.0 - 227.0","?C","226.0","Celsius"
"CC1=CC=C(C=C1)N1CC(CC1=O)C(O)=O","133747-57-6","EN300-06157","2164","5-Oxo-1-p-tolyl-pyrrolidine-3-carboxylic acid","-","A55638","25489863","-","-","184.0 - 186.0","?C","185.0","Celsius"
"CCC1=CC=C(C=C1)N1CC(CC1=O)C(O)=O","-","EN300-06158","2165","1-(4-Ethyl-phenyl)-5-oxo-pyrrolidine-3-carboxylic acid","-","A55638","25489863","-","-","144.0 - 148.0","?C","146.0","Celsius"
"COC1=C(CNC2=NC(=CS2)C2=CC=C(C)C=C2)C=CC=C1","-","EN300-06162","2166","(2-Methoxy-benzyl)-(4-p-tolyl-thiazol-2-yl)-amine","-","A55638","25489863","-","-","96.0 - 98.0","?C","97.0","Celsius"
"COC1=C(C=CC=C1)C1=NN=C(SCC(O)=O)N1N","-","EN300-06163","2167","[4-Amino-5-(2-methoxy-phenyl)-4H-[1,2,4]triazol-3-ylsulfanyl]-acetic acid","-","A55638","25489863","-","-","181.0 - 183.0","?C","182.0","Celsius"
"COC1=C(C=CC=C1)N1C=NN=C1S","66297-54-9","EN300-06166","2168","4-(2-Methoxy-phenyl)-4H-[1,2,4]triazole-3-thiol","-","A55638","25489863","-","-","204.0 - 206.0","?C","205.0","Celsius"
"CCOC(=O)C1=C(N)N(N=N1)C1=CC(=CC=C1)[N+]([O-])=O","-","EN300-06167","2169","5-Amino-1-(3-nitro-phenyl)-1H-[1,2,3]triazole-4-carboxylic acid ethyl ester","-","A55638","25489863","-","-","151.0 - 153.0","?C","152.0","Celsius"
"CC1=CC(OCC2=NN=C(S)O2)=C(C)C=C1","-","EN300-06168","2170","5-(2,5-Dimethyl-phenoxymethyl)-[1,3,4]oxadiazole-2-thiol","-","A55638","25489863","-","-","135.0 - 137.0","?C","136.0","Celsius"
"CC1=CC(NC(N)=S)=CC=C1","621-40-9","EN300-06173","2171","m-tolyl-thiourea","-","A55638","25489863","-","-","110.0 - 112.0","?C","111.0","Celsius"
"CC1CCC2=C(C1)SC1=C2C(=O)N(C(S)=N1)C1=C(C)C=CC=C1","-","EN300-06174","2172","2-Mercapto-7-methyl-3-o-tolyl-5,6,7,8-tetrahydro-3H-benzo[4,5]thieno[2,3-d]pyrimidin-4-one","-","A55638","25489863","-","-","230.0 - 232.0","?C","231.0","Celsius"
"COC1=C(OCC2=C(C)ON=C2C)C=CC(=C1)C(O)=O","-","EN300-06176","2173","4-(3,5-Dimethyl-isoxazol-4-ylmethoxy)-3-methoxy-benzoic acid","-","A55638","25489863","-","-","216.0 - 218.0","?C","217.0","Celsius"
"CC1=CC2=C(N=C(O)C=C2C)C(C)=C1","42414-28-8","EN300-06177","2174","4,6,8-Trimethyl-quinolin-2-ol","-","A55638","25489863","-","-","261.0 - 263.0","?C","262.0","Celsius"
"OC(=O)C=CC1=C(OC(F)F)C=CC(Br)=C1","-","EN300-06190","2176","3-(5-Bromo-2-difluoromethoxy-phenyl)-acrylic acid","-","A55638","25489863","-","-","155.0 - 157.0","?C","156.0","Celsius"