"SMILES","CASRN","EXTERNALID","N","NAME","NAME","ARTICLEID","PUBMEDID","PAGE","TABLE","Melting Point {measured}","UNIT {Melting Point}","Melting Point {measured, converted}","UNIT {Melting Point}"
"CCOC(=O)C1=C(CBr)C(C#N)=C(N)S1","-","EN300-06520","2291","5-Amino-3-bromomethyl-4-cyano-thiophene-2-carboxylic acid ethyl ester","-","A55638","25489863","-","-","206.0 - 208.0","?C","207.0","Celsius"
"CCOC(=O)C1=C(N)SC2=C1CCCS2=O","-","EN300-06523","2292","2-Amino-7-oxo-4,5,6,7-tetrahydro-7lambda*4*-thieno[2,3-b]thiopyran-3-carboxylic acid ethyl ester","-","A55638","25489863","-","-","189.0 - 191.0","?C","190.0","Celsius"
"CC1=NN(CC2=CC=CC=C2)C(Cl)=C1C(O)=O","-","EN300-06529","2294","1-Benzyl-5-chloro-3-methyl-1H-pyrazole-4-carboxylic acid","-","A55638","25489863","-","-","180.0 - 182.0","?C","181.0","Celsius"
"CC1=NN(C(Cl)=C1C(O)=O)C1=CC=CC=C1","1140-38-1","EN300-06530","2295","5-Chloro-3-methyl-1-phenyl-1H-pyrazole-4-carboxylic acid","-","A55638","25489863","-","-","232.0 - 234.0","?C","233.0","Celsius"
"COC1=C(NC(=O)CC2=NOC(CCl)=N2)C=CC=C1","-","EN300-06531","2296","2-(5-Chloromethyl-[1,2,4]oxadiazol-3-yl)-N-(2-methoxy-phenyl)-acetamide","-","A55638","25489863","-","-","95.0 - 97.0","?C","96.0","Celsius"
"CC(=O)NC1=CC2=C(C=C1)C(CCl)=CC(=O)O2","-","EN300-06533","2297","N-(4-Chloromethyl-2-oxo-2H-chromen-7-yl)-acetamide","-","A55638","25489863","-","-","190.0 - 195.0","?C","192.0","Celsius"
"CC1(NC(=O)N(N)C1=O)C1=CC=CC=C1","71202-91-0","EN300-06535","2298","3-Amino-5-methyl-5-phenyl-imidazolidine-2,4-dione","-","A55638","25489863","-","-","169.0 - 171.0","?C","170.0","Celsius"
"COC1=C(C=C(CN2C(=O)C3=C(C=CC=C3)C2=O)C=C1)C(O)=O","-","EN300-06536","2299","5-(1,3-Dioxo-1,3-dihydro-isoindol-2-ylmethyl)-2-methoxy-benzoic acid","-","A55638","25489863","-","-","143.0 - 145.0","?C","144.0","Celsius"
"CC1=CC2=C(N=C(NN)C=C2C)C(C)=C1","-","EN300-06538","2300","(4,6,8-Trimethyl-quinolin-2-yl)-hydrazine","-","A55638","25489863","-","-","113.0 - 115.0","?C","114.0","Celsius"
"CC(C)C1=NN=C(S)N1","59689-64-4","EN300-06550","2301","5-Isopropyl-4H-[1,2,4]triazole-3-thiol","-","A55638","25489863","-","-","156.0 - 158.0","?C","157.0","Celsius"
"ClC1=CC=C(NC(=O)CC2=NC3=C(S2)C=CC=C3)C=C1","-","EN300-06551","2302","2-Benzothiazol-2-yl-N-(4-chloro-phenyl)-acetamide","-","A55638","25489863","-","-","164.0 - 166.0","?C","165.0","Celsius"
"CCCCN1C(=O)NC(=O)C(NCC)=C1N","-","EN300-06556","2303","6-Amino-1-butyl-5-ethylamino-1H-pyrimidine-2,4-dione","-","A55638","25489863","-","-","285.0 - 286.0","?C","286.0","Celsius"
"CCCOC1=C(C=O)C2=C(C=CC=C2)C=C1","885-26-7","EN300-06561","2304","2-Propoxy-naphthalene-1-carbaldehyde","-","A55638","25489863","-","-","65.0 - 68.0","?C","66.5","Celsius"
"CC1=C(C)C2=C(S1)N=C(CN1CCCC1)N=C2Cl","-","EN300-06566","2305","4-Chloro-5,6-dimethyl-2-pyrrolidin-1-ylmethyl-thieno[2,3-d]pyrimidine","-","A55638","25489863","-","-","68.0 - 72.0","?C","70.0","Celsius"
"CN(C1CCCCC1)S(=O)(=O)C1=CC(=CC=C1)C(O)=O","-","EN300-06568","2306","3-(Cyclohexyl-methyl-sulfamoyl)-benzoic acid","-","A55638","25489863","-","-","145.0 - 147.0","?C","146.0","Celsius"
"CC(=O)N1CCN(CC1)S(=O)(=O)C1=CC(=CC=C1)C(O)=O","-","EN300-06569","2307","3-(4-Acetyl-piperazine-1-sulfonyl)-benzoic acid","-","A55638","25489863","-","-","258.0 - 262.0","?C","260.0","Celsius"
"CCCNS(=O)(=O)C1=CC(=CC=C1)C(O)=O","7326-75-2","EN300-06570","2308","3-Propylsulfamoyl-benzoic acid","-","A55638","25489863","-","-","199.0 - 201.0","?C","200.0","Celsius"
"COC1=CC=C(NC2=NC3=C(O2)C=CC(=C3)S(=O)(=O)N2CCOCC2)C=C1","-","EN300-06576","2309","(4-Methoxy-phenyl)-[5-(morpholine-4-sulfonyl)-benzooxazol-2-yl]-amine","-","A55638","25489863","-","-","219.0 - 221.0","?C","220.0","Celsius"
"O=C1NC2=C(C=CC=C2)C(=C1)C1=CC=CC=C1","5855-57-2","EN300-06583","2310","4-phenyl-quinolin-2-ol","-","A55638","25489863","-","-","263.0 - 265.0","?C","264.0","Celsius"
"CC(=O)NC12CC3CC(C1)CC(C3)(C2)C(O)=O","6240-00-2","EN300-06585","2311","3-Acetylamino-adamantane-1-carboxylic acid","-","A55638","25489863","-","-","258.0 - 260.0","?C","259.0","Celsius"
"CCC1(C)NC(=O)N(N)C1=O","1005-88-5","EN300-06586","2312","3-Amino-5-ethyl-5-methyl-imidazolidine-2,4-dione","-","A55638","25489863","-","-","153.0 - 155.0","?C","154.0","Celsius"
"OC(=O)C=CC1=NC2=C(C=CC=C2)N=C1","1593-24-4","EN300-06596","2313","3-Quinoxalin-2-yl-acrylic acid","-","A55638","25489863","-","-","233.0 - 235.0","?C","234.0","Celsius"
"CC(C)CN1C(C)=CC(C=O)=C1C","-","EN300-06599","2314","1-Isobutyl-2,5-dimethyl-1H-pyrrole-3-carbaldehyde","-","A55638","25489863","-","-","43.0 - 47.0","?C","45.0","Celsius"
"CC(C)CCNC(N)=S","6601-04-3","EN300-06601","2315","(3-Methyl-butyl)-thiourea","-","A55638","25489863","-","-","93.0 - 95.0","?C","94.0","Celsius"
"OC(=O)C1=C(CSC2=NN=CN2)C2=C(O1)C=CC=C2","-","EN300-06604","2316","3-(4H-[1,2,4]Triazol-3-ylsulfanylmethyl)-benzofuran-2-carboxylic acid","-","A55638","25489863","-","-","159.0 - 161.0","?C","160.0","Celsius"
"CCOC1=CC=C(C=C(C#N)C(O)=O)C=C1","-","EN300-06608","2317","2-Cyano-3-(4-ethoxy-phenyl)-acrylic acid","-","A55638","25489863","-","-","228.0 - 230.0","?C","229.0","Celsius"
"OC(=O)C(=CC1=CC=CO1)C#N","-","EN300-06615","2318","2-Cyano-3-furan-2-yl-acrylic acid","-","A55638","25489863","-","-","227.0 - 229.0","?C","228.0","Celsius"
"FC(F)OC1=CC=C(C=C1)C1=NN=C(S)O1","-","EN300-06619","2319","5-(4-Difluoromethoxy-phenyl)-[1,3,4]oxadiazole-2-thiol","-","A55638","25489863","-","-","121.0 - 123.0","?C","122.0","Celsius"
"COC(=O)C1=CC=C(NS(=O)(=O)C2=CC=C(C)C=C2)C=C1","-","EN300-06620","2320","4-(Toluene-4-sulfonylamino)-benzoic acid methyl ester","-","A55638","25489863","-","-","150.0 - 152.0","?C","151.0","Celsius"
"CCC1=CC=C(NC2=NN=C(SCC(O)=O)S2)C=C1","-","EN300-06621","2321","[5-(4-Ethyl-phenylamino)-[1,3,4]thiadiazol-2-ylsulfanyl]-acetic acid","-","A55638","25489863","-","-","250.0 - 252.0","?C","251.0","Celsius"
"OC1=CC=C(NC(=O)C2=CC=CO2)C=C1","4104-33-0","EN300-06629","2322","Furan-2-carboxylic acid (4-hydroxy-phenyl)-amide","-","A55638","25489863","-","-","218.0 - 220.0","?C","219.0","Celsius"
"CC(C)C(C)(NC(=O)CCl)C#N","-","EN300-06630","2323","2-Chloro-N-(1-cyano-1,2-dimethyl-propyl)-acetamide","-","A55638","25489863","-","-","71.0 - 73.0","?C","72.0","Celsius"
"CC(C)(C)C1=CC=C(C=C1)C(=O)NCCC(O)=O","-","EN300-06632","2324","3-(4-tert-Butyl-benzoylamino)-propionic acid","-","A55638","25489863","-","-","129.0 - 131.0","?C","130.0","Celsius"
"CCCOC1=C(OC)C=C(C=CC(O)=O)C=C1","-","EN300-06635","2325","3-(3-Methoxy-4-propoxy-phenyl)-acrylic acid","-","A55638","25489863","-","-","187.0 - 189.0","?C","188.0","Celsius"
"COC1=C(OC2=C(C=C(C=C2)S(=O)(=O)N2CCCCC2)[N+]([O-])=O)C=CC(C=O)=C1","-","EN300-06636","2326","3-Methoxy-4-[2-nitro-4-(piperidine-1-sulfonyl)-phenoxy]-benzaldehyde","-","A55638","25489863","-","-","173.0 - 175.0","?C","174.0","Celsius"
"COC1=CC(=CC=C1)C(C[N+]([O-])=O)C1=CNC2=C1C=CC=C2","-","EN300-06639","2327","3-[1-(3-Methoxy-phenyl)-2-nitro-ethyl]-1H-indole","-","A55638","25489863","-","-","93.0 - 95.0","?C","94.0","Celsius"
"NC1=NC(NC2=CC=C(F)C=C2)=NC=N1","1549-50-4","EN300-06644","2329","N-(4-Fluoro-phenyl)-[1,3,5]triazine-2,4-diamine","-","A55638","25489863","-","-","249.0 - 251.0","?C","250.0","Celsius"
"OC(=O)C1=C(OCC2=CC=CC=C2)C=CC(Br)=C1","62176-31-2","EN300-06646","2330","2-Benzyloxy-5-bromo-benzoic acid","-","A55638","25489863","-","-","327.0 - 329.0","?C","328.0","Celsius"
"CN1CCN(CC1)S(=O)(=O)C1=CN=C(NN)C=C1","-","EN300-06648","2331","[5-(4-Methyl-piperazine-1-sulfonyl)-pyridin-2-yl]-hydrazine","-","A55638","25489863","-","-","168.0 - 170.0","?C","169.0","Celsius"
"CCN(CC)S(=O)(=O)C1=CC(=C(OC2=C(OC)C=C(C=O)C=C2)C=C1)[N+]([O-])=O","-","EN300-06652","2332","N,N-Diethyl-4-(4-formyl-2-methoxy-phenoxy)-3-nitro-benzenesulfonamide","-","A55638","25489863","-","-","134.0 - 136.0","?C","135.0","Celsius"
"CC1CC(C)CN(C1)S(=O)(=O)C1=CN=C(NN)C=C1","-","EN300-06653","2333","[5-(3,5-Dimethyl-piperidine-1-sulfonyl)-pyridin-2-yl]-hydrazine","-","A55638","25489863","-","-","217.0 - 219.0","?C","218.0","Celsius"
"OC(=O)CN1C=NC=N1","28711-29-7","EN300-06654","2334","[1,2,4]Triazol-1-yl-acetic acid","-","A55638","25489863","-","-","199.0 - 201.0","?C","200.0","Celsius"
"COC1=C(C=CC=C1)N1CC(CC1=O)C(O)=O","39629-90-8","EN300-06661","2335","1-(2-Methoxy-phenyl)-5-oxo-pyrrolidine-3-carboxylic acid","-","A55638","25489863","-","-","139.0 - 141.0","?C","140.0","Celsius"
"COCCN(C(=O)CCl)C1=C(N)N(CC(C)C)C(=O)NC1=O","-","EN300-06673","2336","N-(6-Amino-1-isobutyl-2,4-dioxo-1,2,3,4-tetrahydro-pyrimidin-5-yl)-2-chloro-N-(2-methoxy-ethyl)-acetamide","-","A55638","25489863","-","-","204.0 - 206.0","?C","205.0","Celsius"
"CN1C=CC=C1C(=O)NC(=O)CCl","-","EN300-06674","2337","1-Methyl-1H-pyrrole-2-carboxylic acid (2-chloro-acetyl)-amide","-","A55638","25489863","-","-","139.0 - 141.0","?C","140.0","Celsius"
"COC(=O)C1=CC2=C(C=C1)C(=O)NC(CCl)=N2","-","EN300-06676","2338","2-Chloromethyl-4-oxo-3,4-dihydro-quinazoline-7-carboxylic acid methyl ester","-","A55638","25489863","-","-","210.0 - 212.0","?C","211.0","Celsius"
"ClCC1=NC2=C(C=C(Br)C=C2Br)C(=O)N1","-","EN300-06679","2340","6,8-Dibromo-2-chloromethyl-3H-quinazolin-4-one","-","A55638","25489863","-","-","248.0 - 252.0","?C","250.0","Celsius"
"CCOC(=O)C1=C(N)C=C(S1)C1=C(Cl)C=C(Cl)C=C1","-","EN300-06683","2341","3-Amino-5-(2,4-dichloro-phenyl)-thiophene-2-carboxylic acid ethyl ester","-","A55638","25489863","-","-","100.0 - 102.0","?C","101.0","Celsius"
"CCC1=CC(=O)OC2=C1C=CC(O)=C2","64231-10-3","EN300-06686","2342","4-Ethoxy-7-hydroxy-chromen-2-one","-","A55638","25489863","-","-","176.0 - 178.0","?C","177.0","Celsius"
"OC(=O)C1=CC(CN2C(=O)C3=C(C=CC=C3)C2=O)=CC=C1","106352-01-6","EN300-06688","2343","3-(1,3-Dioxo-1,3-dihydro-isoindol-2-ylmethyl)-benzoic acid","-","A55638","25489863","-","-","202.0 - 212.0","?C","207.0","Celsius"
"NN1CCN(CC1)C(C1=CC=CC=C1)C1=CC=CC=C1","1698-31-3","EN300-06694","2344","4-Benzhydryl-piperazin-1-ylamine","-","A55638","25489863","-","-","108.0 - 110.0","?C","109.0","Celsius"
"CC(C)C1=CC(=O)OC2=C1C=CC(O)=C2","23251-28-7","EN300-06697","2345","7-Hydroxy-4-isopropyl-chromen-2-one","-","A55638","25489863","-","-","77.0 - 79.0","?C","78.0","Celsius"
"COCC1=C(OC2=C1C=CC=C2)C(O)=O","-","EN300-06698","2346","3-Methoxymethyl-benzofuran-2-carboxylic acid","-","A55638","25489863","-","-","119.0 - 121.0","?C","120.0","Celsius"
"COCCNC(=O)NC(=O)CCl","-","EN300-06699","2347","1-(2-Chloro-acetyl)-3-(2-methoxy-ethyl)-urea","-","A55638","25489863","-","-","103.0 - 105.0","?C","104.0","Celsius"
"CC1(NC(=O)N(NC(=O)CCl)C1=O)C1=CC=CC=C1","-","EN300-06708","2349","2-Chloro-N-(4-methyl-2,5-dioxo-4-phenyl-imidazolidin-1-yl)-acetamide","-","A55638","25489863","-","-","150.0 - 152.0","?C","151.0","Celsius"
"ClC1=CC(NCCC#N)=CC=C1","54475-92-2","EN300-06718","2351","3-(3-Chloro-phenylamino)-propionitrile","-","A55638","25489863","-","-","141.0 - 143.0","?C","142.0","Celsius"
"CN1C(=O)N(C)C2=C(C(S)=NC(=N2)C(C)(C)C)C1=O","-","EN300-06732","2353","7-tert-Butyl-5-mercapto-1,3-dimethyl-1H-pyrimido[4,5-d]pyrimidine-2,4-dione","-","A55638","25489863","-","-","143.0 - 145.0","?C","144.0","Celsius"
"O=C(CC#N)N1CCN(CC1)C1=CC=CC=C1","14761-40-1","EN300-06736","2354","3-Oxo-3-(4-phenyl-piperazin-1-yl)-propionitrile","-","A55638","25489863","-","-","132.0 - 134.0","?C","133.0","Celsius"
"OC1=C(CNC2=CC=C(F)C=C2)C=CC=C1","-","EN300-06742","2355","2-[(4-Fluoro-phenylamino)-methyl]-phenol","-","A55638","25489863","-","-","103.0 - 105.0","?C","104.0","Celsius"
"OC1=C(CNC2CCCCC2)C=CC=C1","62984-53-6","EN300-06745","2356","2-Cyclohexylaminomethyl-phenol","-","A55638","25489863","-","-","61.0 - 63.0","?C","62.0","Celsius"
"COC1=C(OC)C=C2C(N(CCC2=C1)C(=O)CCl)C1=CC=CC=C1","66040-35-5","EN300-06751","2357","2-Chloro-1-(6,7-dimethoxy-1-phenyl-3,4-dihydro-1H-isoquinolin-2-yl)-ethanone","-","A55638","25489863","-","-","218.0 - 222.0","?C","220.0","Celsius"
"COC(=O)C(=NO)C#N","-","EN300-06757","2359","Cyano-hydroxyimino-acetic acid methyl ester","-","A55638","25489863","-","-","122.0 - 124.0","?C","123.0","Celsius"
"C1CSC2=C(N1)C=CC=C2","3080-99-7","EN300-06758","2360","3,4-Dihydro-2H-benzo[1,4]thiazine","-","A55638","25489863","-","-","34.0 - 38.0","?C","36.0","Celsius"
"COC(=O)C1=CC(=CC(=C1)C(=O)OC)S(Cl)(=O)=O","-","EN300-06759","2361","5-Chlorosulfonyl-isophthalic acid dimethyl ester","-","A55638","25489863","-","-","105.0 - 107.0","?C","106.0","Celsius"
"SC1=C2C=CC=CC2=C(N=N1)C1=CC=CC=C1","35392-60-0","EN300-06763","2362","4-Phenyl-phthalazine-1-thiol","-","A55638","25489863","-","-","178.0 - 180.0","?C","179.0","Celsius"
"CC1=CC2=C(N3C(S)=NN=C3C=C2C)C(C)=C1","-","EN300-06764","2363","5,7,9-Trimethyl-[1,2,4]triazolo[4,3-a]quinoline-1-thiol","-","A55638","25489863","-","-","262.0 - 264.0","?C","263.0","Celsius"
"CC1=CC=C(C=C1)C1NCC(CCl)O1","-","EN300-06773","2364","5-(chloromethyl)-2-(4-methylphenyl)-1,3-oxazolidine","-","A55638","25489863","-","-","60.0 - 64.0","?C","62.0","Celsius"
"COCCN1C=NC2=C1C(=O)N(CC(O)=O)C(=O)N2CC1=CC=CC=C1","-","EN300-06783","2365","[3-benzyl-7-(2-methoxyethyl)-2,6-dioxo-2,3,6,7-tetrahydro-1H-purin-1-yl]acetic acid","-","A55638","25489863","-","-","131.0 - 133.0","?C","132.0","Celsius"
"COC1=C(C=CC=C1)C1=NN=C(S)O1","69844-25-3","EN300-06799","2366","5-(2-methoxyphenyl)-1,3,4-oxadiazole-2-thiol","-","A55638","25489863","-","-","243.0 - 245.0","?C","244.0","Celsius"
"ClCC1=NN=C(O1)C1=CC=CS1","-","EN300-06802","2367","2-(chloromethyl)-5-thien-2-yl-1,3,4-oxadiazole","-","A55638","25489863","-","-","77.0 - 79.0","?C","78.0","Celsius"
"FC1=CC2=C(OC(OC2)C2=CC=CC=C2)C(CCl)=C1","-","EN300-06806","2368","8-(chloromethyl)-6-fluoro-2-phenyl-4H-1,3-benzodioxine","-","A55638","25489863","-","-","61.0 - 65.0","?C","63.0","Celsius"
"CCOC1=C(C=C(CN2C(=O)C3=C(C=CC=C3)C2=O)C=C1)C(O)=O","-","EN300-06808","2369","5-[(1,3-dioxo-1,3-dihydro-2H-isoindol-2-yl)methyl]-2-ethoxybenzoic acid","-","A55638","25489863","-","-","172.0 - 174.0","?C","173.0","Celsius"
"CC1=CC(OC2=C(N)C=C(Cl)C=C2)=CC=C1","56966-51-9","EN300-06810","2370","5-chloro-2-(3-methylphenoxy)aniline","-","A55638","25489863","-","-","93.0 - 97.0","?C","95.0","Celsius"
"ClS(=O)(=O)C1=CC2=C(NC(=O)O2)C=C1","27685-90-1","EN300-06814","2371","2-oxo-2,3-dihydro-1,3-benzoxazole-6-sulfonyl chloride","-","A55638","25489863","-","-","151.0 - 155.0","?C","153.0","Celsius"
"CCN(CC)S(=O)(=O)C1=CC(N)=C(OC2=CC(C)=CC=C2)C=C1","-","EN300-06816","2372","3-amino-N,N-diethyl-4-(3-methylphenoxy)benzenesulfonamide","-","A55638","25489863","-","-","122.0 - 124.0","?C","123.0","Celsius"
"CC(OC1=C(C)C(C)=CC=C1)C(=O)NN","142835-36-7","EN300-06818","2373","2-(2,3-dimethylphenoxy)propanohydrazide","-","A55638","25489863","-","-","140.0 - 144.0","?C","142.0","Celsius"
"FC1=CC(=C(F)C=C1)S(=O)(=O)NC1=C(Cl)N=C2C=CC=CC2=N1","-","EN300-06820","2374","N-(3-chloroquinoxalin-2-yl)-2,5-difluorobenzenesulfonamide","-","A55638","25489863","-","-","250.0 - 252.0","?C","251.0","Celsius"
"CC1=C(SC2=C1C(=O)N1CCCC1=N2)C(O)=O","-","EN300-06821","2375","3-methyl-4-oxo-4,6,7,8-tetrahydropyrrolo[1,2-a]thieno[2,3-d]pyrimidine-2-carboxylic acid","-","A55638","25489863","-","-","281.0 - 283.0","?C","282.0","Celsius"
"FC(F)(F)C1=CC2=C(C=C1)C(=O)N1CCCC1=N2","-","EN300-06822","2376","6-(trifluoromethyl)-2,3-dihydropyrrolo[2,1-b]quinazolin-9(1H)-one","-","A55638","25489863","-","-","156.0 - 158.0","?C","157.0","Celsius"
"S=C1NC2=C(C=CC=C2)C2CC=NN12","-","EN300-06823","2377","1,10b-dihydropyrazolo[1,5-c]quinazoline-5-thiol","-","A55638","25489863","-","-","249.0 - 251.0","?C","250.0","Celsius"
"CC1=C(SC(=N1)N1CCCCC1)C=O","-","EN300-06824","2378","4-methyl-2-piperidin-1-yl-1,3-thiazole-5-carbaldehyde","-","A55638","25489863","-","-","113.0 - 115.0","?C","114.0","Celsius"
"NC1=CC=C(C=C1)S(=O)(=O)N1CCCCCC1","109286-01-3","EN300-06829","2379","4-(azepan-1-ylsulfonyl)aniline","-","A55638","25489863","-","-","105.0 - 107.0","?C","106.0","Celsius"
"COC(=O)C1=CC(=C(C=C1)C(=O)OC)S(Cl)(=O)=O","-","EN300-06830","2380","dimethyl 2-(chlorosulfonyl)terephthalate","-","A55638","25489863","-","-","63.0 - 67.0","?C","65.0","Celsius"
"OC(=O)C1=C(CC#N)C=CC=C1","6627-91-4","EN300-06835","2381","2-(Cyanomethyl)benzoic acid","-","A55638","25489863","-","-","106.0 - 108.0","?C","107.0","Celsius"
"CCCCNC1=C(N)N(CCC)C(=O)NC1=O","99991-93-2","EN300-06836","2382","6-amino-5-(butylamino)-1-propylpyrimidine-2,4(1H,3H)-dione","-","A55638","25489863","-","-","201.0 - 203.0","?C","202.0","Celsius"
"OC1=COC(CCl)=CC1=O","7559-81-1","EN300-06838","2383","2-(chloromethyl)-5-hydroxy-4H-pyran-4-one","-","A55638","25489863","-","-","166.0 - 168.0","?C","167.0","Celsius"
"CCCN1C(C)=CC(C=O)=C1C","18870-75-2","EN300-06840","2384","2,5-dimethyl-1-propyl-1H-pyrrole-3-carbaldehyde","-","A55638","25489863","-","-","52.0 - 54.0","?C","53.0","Celsius"
"CCNC1=C(N)C=C(C=C1)S(=O)(=O)N(C)C","-","EN300-06844","2385","3-amino-4-(ethylamino)-N,N-dimethylbenzenesulfonamide","-","A55638","25489863","-","-","161.0 - 163.0","?C","162.0","Celsius"
"ClC1=CC2=C(N=C3CCCN3C2=O)C(Cl)=C1","-","EN300-06850","2386","5,7-dichloro-2,3-dihydropyrrolo[2,1-b]quinazolin-9(1H)-one","-","A55638","25489863","-","-","245.0 - 247.0","?C","246.0","Celsius"
"ClC1=CC2=C(C=C1)N=C1CCCN1C2=O","60811-39-4","EN300-06851","2387","7-chloro-2,3-dihydropyrrolo[2,1-b]quinazolin-9(1H)-one","-","A55638","25489863","-","-","180.0 - 182.0","?C","181.0","Celsius"
"CCOC(=O)C1=NN(C=C1O)C1=CC=CC=C1","39683-24-4","EN300-06852","2388","ethyl 4-hydroxy-1-phenyl-1H-pyrazole-3-carboxylate","-","A55638","25489863","-","-","86.0 - 88.0","?C","87.0","Celsius"
"CN1CCC2=C(C1)SC(N)=N2","17899-48-8","EN300-06856","2389","5-methyl-4,5,6,7-tetrahydro[1,3]thiazolo[5,4-c]pyridin-2-amine","-","A55638","25489863","-","-","168.0 - 170.0","?C","169.0","Celsius"
"CCNC1=C(N)C=C(C=C1)S(=O)(=O)N1CCOCC1","-","EN300-06863","2390","N-[2-amino-4-(morpholin-4-ylsulfonyl)phenyl]-N-ethylamine","-","A55638","25489863","-","-","188.0 - 190.0","?C","189.0","Celsius"
"CC(OC1=C(F)C=CC=C1)C(=O)NN","-","EN300-06868","2391","2-(2-fluorophenoxy)propanohydrazide","-","A55638","25489863","-","-","64.0 - 66.0","?C","65.0","Celsius"
"CC(=O)C1=CC(=CC=C1)N1C=NN=N1","-","EN300-06872","2392","1-[3-(1H-tetrazol-1-yl)phenyl]ethanone","-","A55638","25489863","-","-","155.0 - 157.0","?C","156.0","Celsius"
"CC(C)CN1C(=O)N(C)C(=O)C(C=O)=C1N","-","EN300-06873","2393","6-amino-1-isobutyl-3-methyl-2,4-dioxo-1,2,3,4-tetrahydropyrimidine-5-carbaldehyde","-","A55638","25489863","-","-","192.0 - 194.0","?C","193.0","Celsius"
"COC1=C(C=C(C=C1)C(O)=O)S(=O)(=O)NC1CCCC1","-","EN300-06881","2395","3-[(cyclopentylamino)sulfonyl]-4-methoxybenzoic acid","-","A55638","25489863","-","-","216.0 - 218.0","?C","217.0","Celsius"
"CCCCN(C(=O)CCl)C1=C(N)N(CCC)C(=O)NC1=O","-","EN300-06884","2396","N-(6-amino-2,4-dioxo-1-propyl-1,2,3,4-tetrahydropyrimidin-5-yl)-N-butyl-2-chloroacetamide","-","A55638","25489863","-","-","229.0 - 231.0","?C","230.0","Celsius"
"ClCC1=NC2=C(C=CC=C2)C(=O)N1CC#N","-","EN300-06885","2397","[2-(chloromethyl)-4-oxoquinazolin-3(4H)-yl]acetonitrile","-","A55638","25489863","-","-","143.0 - 145.0","?C","144.0","Celsius"
"CC1=NN(C2CCS(=O)(=O)C2)C(=O)C1","881-38-9","EN300-06886","2398","2-(1,1-dioxidotetrahydrothien-3-yl)-5-methyl-2,4-dihydro-3H-pyrazol-3-one","-","A55638","25489863","-","-","185.0 - 187.0","?C","186.0","Celsius"
"COC1=C(NC(=O)CC(N)=S)C=CC=C1","-","EN300-06888","2399","3-amino-N-(2-methoxyphenyl)-3-thioxopropanamide","-","A55638","25489863","-","-","146.0 - 148.0","?C","147.0","Celsius"
"CC(C)CNC(N)=S","1516-33-2","EN300-06891","2400","N-isobutylthiourea","-","A55638","25489863","-","-","99.0 - 101.0","?C","100.0","Celsius"
"NS(=O)(=O)C1=CC=C(CCN2C(S)=NC3=C(C=CC=C3)C2=O)C=C1","-","EN300-06897","2401","4-[2-(2-mercapto-4-oxoquinazolin-3(4H)-yl)ethyl]benzenesulfonamide","-","A55638","25489863","-","-","294.0 - 296.0","?C","295.0","Celsius"
"CC(C)CN(C1CCS(=O)(=O)C1)C(=O)CCl","-","EN300-06905","2402","2-chloro-N-(1,1-dioxidotetrahydrothien-3-yl)-N-isobutylacetamide","-","A55638","25489863","-","-","150.0 - 155.0","?C","152.0","Celsius"