"SMILES","CASRN","EXTERNALID","N","NAME","NAME","ARTICLEID","PUBMEDID","PAGE","TABLE","Melting Point {measured}","UNIT {Melting Point}","Melting Point {measured, converted}","UNIT {Melting Point}"
"OC(=O)C1=NC(Cl)=CC(Cl)=C1","-","EN300-101252","3805","4,6-dichloropyridine-2-carboxylic acid","-","A55638","25489863","-","-","93.0 - 95.0","?C","94.0","Celsius"
"CC1(O)CCC2=C1C=CC=C2","-","EN300-101264","3807","1-methyl-2,3-dihydro-1H-inden-1-ol","-","A55638","25489863","-","-","56.0 - 58.0","?C","57.0","Celsius"
"NC1=C2C=NC=CC2=NC=C1","-","EN300-101272","3808","1,6-naphthyridin-4-amine","-","A55638","25489863","-","-","254.0 - 256.0","?C","255.0","Celsius"
"CN(CC(O)=O)C1CCCC1O","-","EN300-101273","3809","2-[(2-hydroxycyclopentyl)(methyl)amino]acetic acid","-","A55638","25489863","-","-","150.0 - 152.0","?C","151.0","Celsius"
"CC(SC1=C2C=CC(Cl)=CC2=NC=C1)C(O)=O","-","EN300-101274","3810","2-[(7-chloroquinolin-4-yl)sulfanyl]propanoic acid","-","A55638","25489863","-","-","201.0 - 203.0","?C","202.0","Celsius"
"NC1CCN(C1=O)C1=CC(Cl)=CC=C1","-","EN300-101275","3811","3-amino-1-(3-chlorophenyl)pyrrolidin-2-one","-","A55638","25489863","-","-","99.0 - 101.0","?C","100.0","Celsius"
"CN1N=CC2=C1N=NNC2=O","-","EN300-101276","3812","7-methyl-3H,4H,7H-pyrazolo[3,4-d][1,2,3]triazin-4-one","-","A55638","25489863","-","-","152.0 - 154.0","?C","153.0","Celsius"
"COCCOC1=C(C=C(Cl)C=C1)C#N","-","EN300-101277","3813","5-chloro-2-(2-methoxyethoxy)benzonitrile","-","A55638","25489863","-","-","64.0 - 66.0","?C","65.0","Celsius"
"O=C1NN=NC2=C1C=NN2C1=CC=CC=C1","-","EN300-101278","3814","7-phenyl-3H,4H,7H-pyrazolo[3,4-d][1,2,3]triazin-4-one","-","A55638","25489863","-","-","144.0 - 146.0","?C","145.0","Celsius"
"ClCN1N=NC2=C(C=NN2C2=CC=CC=C2)C1=O","-","EN300-101279","3815","3-(chloromethyl)-7-phenyl-3H,4H,7H-pyrazolo[3,4-d][1,2,3]triazin-4-one","-","A55638","25489863","-","-","179.0 - 181.0","?C","180.0","Celsius"
"CC(=CC(O)=O)C1=CC(Cl)=CC=C1","-","EN300-101280","3816","3-(3-chlorophenyl)but-2-enoic acid","-","A55638","25489863","-","-","156.0 - 158.0","?C","157.0","Celsius"
"C1=CN(C=N1)C1=CN=CN=C1","-","EN300-101281","3817","5-(1H-imidazol-1-yl)pyrimidine","-","A55638","25489863","-","-","129.0 - 131.0","?C","130.0","Celsius"
"CC1=CC(C(=O)NC2=CC=NC=C2)=C(O)C=C1","-","EN300-101282","3818","2-hydroxy-5-methyl-N-(pyridin-4-yl)benzamide","-","A55638","25489863","-","-","249.0 - 251.0","?C","250.0","Celsius"
"FC1=C(C=CC=C1)S(=O)(=O)NC1=CNN=C1","-","EN300-101284","3820","2-fluoro-N-(1H-pyrazol-4-yl)benzene-1-sulfonamide","-","A55638","25489863","-","-","186.0 - 188.0","?C","187.0","Celsius"
"ClC1=NC=NC(NC2CCOC3=C2C=CC=C3)=C1","-","EN300-101285","3821","6-chloro-N-(3,4-dihydro-2H-1-benzopyran-4-yl)pyrimidin-4-amine","-","A55638","25489863","-","-","129.0 - 131.0","?C","130.0","Celsius"
"CC1=C2N=C(CCC(O)=O)NC2=CC=C1","-","EN300-101288","3822","3-(4-methyl-1H-1,3-benzodiazol-2-yl)propanoic acid","-","A55638","25489863","-","-","238.0 - 240.0","?C","239.0","Celsius"
"CCOC(=O)C1=C(N)SC2=C1CCNC2","-","EN300-101307","3825","ethyl 2-amino-4H,5H,6H,7H-thieno[2,3-c]pyridine-3-carboxylate","-","A55638","25489863","-","-","121.0 - 123.0","?C","122.0","Celsius"
"CC1N(C)C2=C(NC1=O)C=C(C=C2)C(O)=O","-","EN300-101308","3826","1,2-dimethyl-3-oxo-1,2,3,4-tetrahydroquinoxaline-6-carboxylic acid","-","A55638","25489863","-","-","289.0 - 291.0","?C","290.0","Celsius"
"FC(F)(F)C1=C(C=CC=C1)C(=O)CSC#N","-","EN300-101309","3827","2-(cyanosulfanyl)-1-[2-(trifluoromethyl)phenyl]ethan-1-one","-","A55638","25489863","-","-","49.0 - 51.0","?C","50.0","Celsius"
"COC1=C(OC)C=C(C=O)C(C)=C1","-","EN300-101310","3828","4,5-Dimethoxy-2-methylbenzaldehyde","-","A55638","25489863","-","-","70.0 - 72.0","?C","71.0","Celsius"
"CC1=CC(Br)=C(C=C1)C(O)=O","-","EN300-101329","3831","2-bromo-4-methylbenzoic acid","-","A55638","25489863","-","-","143.0 - 147.0","?C","145.0","Celsius"
"OC(=O)C1=C(Br)C=C(F)C(F)=C1","-","EN300-101332","3832","2-bromo-4,5-difluorobenzoic acid","-","A55638","25489863","-","-","118.0 - 122.0","?C","120.0","Celsius"
"BrC1=CN=C(SC2CCOCC2)C=C1","-","EN300-101342","3833","5-bromo-2-(oxan-4-ylsulfanyl)pyridine","-","A55638","25489863","-","-","60.0 - 62.0","?C","61.0","Celsius"
"CC1=NN(CC2=CC(N)=CC=C2)C(C)=N1","-","EN300-101343","3834","3-[(3,5-dimethyl-1H-1,2,4-triazol-1-yl)methyl]aniline","-","A55638","25489863","-","-","109.0 - 111.0","?C","110.0","Celsius"
"CCC1=CC=C(C=C1)C(C)(C)C(O)=O","-","EN300-101345","3835","2-(4-ethylphenyl)-2-methylpropanoic acid","-","A55638","25489863","-","-","52.0 - 54.0","?C","53.0","Celsius"
"CS(=O)(=O)CC1=C(CN)C=C(F)C=C1","-","EN300-101347","3837","[5-fluoro-2-(methanesulfonylmethyl)phenyl]methanamine","-","A55638","25489863","-","-","77.0 - 79.0","?C","78.0","Celsius"
"NC1=NON=C1C1=CC(Br)=CC=C1","-","EN300-101349","3838","4-(3-bromophenyl)-1,2,5-oxadiazol-3-amine","-","A55638","25489863","-","-","137.0 - 139.0","?C","138.0","Celsius"
"NC1=NON=C1C1=CC(Cl)=C(Cl)C=C1","-","EN300-101353","3840","4-(3,4-dichlorophenyl)-1,2,5-oxadiazol-3-amine","-","A55638","25489863","-","-","143.0 - 145.0","?C","144.0","Celsius"
"CC1=C(C=CC(=C1)C#N)N1CC2CCC1C2","-","EN300-101355","3841","4-{2-azabicyclo[2.2.1]heptan-2-yl}-3-methylbenzonitrile","-","A55638","25489863","-","-","69.0 - 71.0","?C","70.0","Celsius"
"NC1=CC(NC(=O)C2CCCCC2)=CC=C1","-","EN300-101356","3842","N-(3-aminophenyl)cyclohexanecarboxamide","-","A55638","25489863","-","-","139.0 - 141.0","?C","140.0","Celsius"
"FC(F)C1=NC2=C(N1)C=CC=C2Cl","-","EN300-101360","3843","4-chloro-2-(difluoromethyl)-1H-1,3-benzodiazole","-","A55638","25489863","-","-","125.0 - 127.0","?C","126.0","Celsius"
"CCOC(=O)CCC1=NC(CC(=O)NC)=NO1","-","EN300-101361","3844","ethyl 3-{3-[(methylcarbamoyl)methyl]-1,2,4-oxadiazol-5-yl}propanoate","-","A55638","25489863","-","-","84.0 - 86.0","?C","85.0","Celsius"
"CN1C=CC=C1C(=O)CCl","23694-02-2","EN300-10137","3845","2-chloro-1-(1-methyl-1H-pyrrol-2-yl)ethanone","-","A55638","25489863","-","-","30.0 - 40.0","?C","35.0","Celsius"
"[O-][N+](=O)C1=CC=C(CCN2C(=O)C=CC2=O)C=C1","-","EN300-101378","3846","1-[2-(4-nitrophenyl)ethyl]-2,5-dihydro-1H-pyrrole-2,5-dione","-","A55638","25489863","-","-","61.0 - 63.0","?C","62.0","Celsius"
"CCC1=C(C=CC=C1)N1CC(CC1=O)C(O)=O","63675-17-2","EN300-10138","3847","1-(2-ethylphenyl)-5-oxopyrrolidine-3-carboxylic acid","-","A55638","25489863","-","-","99.0 - 101.0","?C","100.0","Celsius"
"OC(=O)CCCCN1C(=O)C=CC1=O","-","EN300-101380","3848","5-(2,5-dioxo-2,5-dihydro-1H-pyrrol-1-yl)pentanoic acid","-","A55638","25489863","-","-","84.0 - 86.0","?C","85.0","Celsius"
"CC(C)NS(=O)(=O)C1=CC=C(N)C=C1","53668-35-2","EN300-10139","3851","4-amino-N-isopropylbenzenesulfonamide","-","A55638","25489863","-","-","112.0 - 114.0","?C","113.0","Celsius"
"CC1=CC(C)=C(C=C1)S(=O)(=O)N1CCC(CC1)C(O)=O","-","EN300-10140","3852","1-[(2,4-dimethylphenyl)sulfonyl]piperidine-4-carboxylic acid","-","A55638","25489863","-","-","200.0 - 202.0","?C","201.0","Celsius"
"NC1=C(N=CN=C1)N1CCCC1","-","EN300-101414","3853","4-(pyrrolidin-1-yl)pyrimidin-5-amine","-","A55638","25489863","-","-","156.0 - 158.0","?C","157.0","Celsius"
"N1C=NN=C1C1=CC=NC=C1","-","EN300-101418","3854","4-(4H-1,2,4-triazol-3-yl)pyridine","-","A55638","25489863","-","-","225.0 - 227.0","?C","226.0","Celsius"
"C(CC1=NN=NN1)CC1=CC=CC=C1","-","EN300-101419","3855","5-(3-phenylpropyl)-1H-1,2,3,4-tetrazole","-","A55638","25489863","-","-","90.0 - 92.0","?C","91.0","Celsius"
"CC(=O)C1=CC=C(OC2CCOCC2)C=C1","-","EN300-101420","3856","1-[4-(oxan-4-yloxy)phenyl]ethan-1-one","-","A55638","25489863","-","-","72.0 - 74.0","?C","73.0","Celsius"
"CN1C=C(C=C1C(=O)C(Cl)(Cl)Cl)C#N","-","EN300-101421","3857","1-methyl-5-(2,2,2-trichloroacetyl)-1H-pyrrole-3-carbonitrile","-","A55638","25489863","-","-","146.0 - 148.0","?C","147.0","Celsius"
"CC1=C(C=CC(F)=C1)N1C=C(O)C(=N1)C(O)=O","-","EN300-101425","3858","1-(4-fluoro-2-methylphenyl)-4-hydroxy-1H-pyrazole-3-carboxylic acid","-","A55638","25489863","-","-","149.0 - 151.0","?C","150.0","Celsius"
"CC1=C(C=CC(=C1)N1C(=O)C2=C(C=CC=C2)C1=O)C(O)=O","-","EN300-101426","3859","4-(1,3-dioxo-2,3-dihydro-1H-isoindol-2-yl)-2-methylbenzoic acid","-","A55638","25489863","-","-","271.0 - 273.0","?C","272.0","Celsius"
"OC(=O)CCC(=O)C1=CC(F)=C(F)C=C1","-","EN300-101431","3860","4-(3,4-difluorophenyl)-4-oxobutanoic acid","-","A55638","25489863","-","-","84.0 - 86.0","?C","85.0","Celsius"
"OC(=O)CCC(=O)C1=CSC2=C1C=CC=C2","-","EN300-101433","3862","4-(1-benzothiophen-3-yl)-4-oxobutanoic acid","-","A55638","25489863","-","-","139.0 - 141.0","?C","140.0","Celsius"
"OC(=O)CCC(=O)C1=C(Cl)SC(Cl)=C1","-","EN300-101435","3863","4-(2,5-dichlorothiophen-3-yl)-4-oxobutanoic acid","-","A55638","25489863","-","-","117.0 - 119.0","?C","118.0","Celsius"
"CCOC1=C(N)C=C(C=C1)C(=O)N1CCCCC1","-","EN300-101439","3864","2-ethoxy-5-[(piperidin-1-yl)carbonyl]aniline","-","A55638","25489863","-","-","143.0 - 145.0","?C","144.0","Celsius"
"CC1=CC(C(=O)CCl)=C(C)N1C1=CC(=C(Cl)C=C1)C(F)(F)F","-","EN300-10144","3865","2-chloro-1-{1-[4-chloro-3-(trifluoromethyl)phenyl]-2,5-dimethyl-1H-pyrrol-3-yl}ethanone","-","A55638","25489863","-","-","139.0 - 141.0","?C","140.0","Celsius"
"NC(=O)C=C1CCCC1","-","EN300-101440","3866","2-cyclopentylideneacetamide","-","A55638","25489863","-","-","141.0 - 143.0","?C","142.0","Celsius"
"ClC1=C2CCCC(=O)C2=C(Cl)S1","-","EN300-101446","3867","1,3-dichloro-4,5,6,7-tetrahydro-2-benzothiophen-4-one","-","A55638","25489863","-","-","37.0 - 39.0","?C","38.0","Celsius"
"CC1=CC(C)=C(NC(N)=O)C=C1","2990-02-5","EN300-10145","3869","N-(2,4-dimethylphenyl)urea","-","A55638","25489863","-","-","215.0 - 217.0","?C","216.0","Celsius"
"O=C1CCCC2=C1SC1=C2C=CC=C1","-","EN300-101459","3870","8-thiatricyclo[7.4.0.0^{2,7}]trideca-1(9),2(7),10,12-tetraen-6-one","-","A55638","25489863","-","-","113.0 - 115.0","?C","114.0","Celsius"
"CC1=CC(C(=O)CCl)=C(C)N1C1=CC(F)=CC=C1","-","EN300-10146","3871","2-chloro-1-[1-(3-fluorophenyl)-2,5-dimethyl-1H-pyrrol-3-yl]ethanone","-","A55638","25489863","-","-","90.0 - 94.0","?C","92.0","Celsius"
"N#CC1CSCCS1","-","EN300-101463","3873","1,4-dithiane-2-carbonitrile","-","A55638","25489863","-","-","76.0 - 78.0","?C","77.0","Celsius"
"ClC1=CC=C(C2=CC=CC(Cl)=C12)S(Cl)(=O)=O","-","EN300-101464","3874","4,5-dichloronaphthalene-1-sulfonyl chloride","-","A55638","25489863","-","-","115.0 - 117.0","?C","116.0","Celsius"
"OC(=O)CCNC(=O)CCC(O)=O","-","EN300-101465","3875","3-[(2-carboxyethyl)carbamoyl]propanoic acid","-","A55638","25489863","-","-","132.0 - 134.0","?C","133.0","Celsius"
"CC1=C(C(O)=O)C2=C(C=CC(Br)=C2)N=C1C1CC1","-","EN300-101470","3876","6-bromo-2-cyclopropyl-3-methylquinoline-4-carboxylic acid","-","A55638","25489863","-","-","218.0 - 220.0","?C","219.0","Celsius"
"COC1=NC=C(CC#N)C=C1","-","EN300-101477","3878","2-(6-methoxypyridin-3-yl)acetonitrile","-","A55638","25489863","-","-","49.0 - 51.0","?C","50.0","Celsius"
"CN1CCC(CC1)N1N=C(C)C=C1N","-","EN300-101479","3880","3-methyl-1-(1-methylpiperidin-4-yl)-1H-pyrazol-5-amine","-","A55638","25489863","-","-","89.0 - 91.0","?C","90.0","Celsius"
"OC(=O)CCC1=C(Br)C=CC(Cl)=C1","-","EN300-101480","3881","3-(2-bromo-5-chlorophenyl)propanoic acid","-","A55638","25489863","-","-","83.0 - 85.0","?C","84.0","Celsius"
"CC(C)(C)OC(=O)N1CCN(CC1)C1=NC(N)=NS1","-","EN300-101482","3882","tert-butyl 4-(3-amino-1,2,4-thiadiazol-5-yl)piperazine-1-carboxylate","-","A55638","25489863","-","-","196.0 - 198.0","?C","197.0","Celsius"
"OC(=O)C1=C(OCC(F)(F)F)C=CC(Cl)=C1","-","EN300-101493","3884","5-chloro-2-(2,2,2-trifluoroethoxy)benzoic acid","-","A55638","25489863","-","-","121.0 - 123.0","?C","122.0","Celsius"
"SC1=C(Cl)C=C2NC(=O)COC2=C1","-","EN300-101497","3885","6-chloro-7-sulfanyl-3,4-dihydro-2H-1,4-benzoxazin-3-one","-","A55638","25489863","-","-","256.0 - 258.0","?C","257.0","Celsius"
"CC1=CC(C(=O)CCl)=C(C)N1C1=CC(Cl)=CC(Cl)=C1","-","EN300-10150","3886","2-chloro-1-[1-(3,5-dichlorophenyl)-2,5-dimethyl-1H-pyrrol-3-yl]ethanone","-","A55638","25489863","-","-","113.0 - 115.0","?C","114.0","Celsius"
"CC1=CC(C(=O)CCl)=C(C)N1C1=CC=C(OC(F)(F)F)C=C1","-","EN300-10152","3888","2-chloro-1-{2,5-dimethyl-1-[4-(trifluoromethoxy)phenyl]-1H-pyrrol-3-yl}ethanone","-","A55638","25489863","-","-","76.0 - 80.0","?C","78.0","Celsius"
"CC(=O)NC1=C(C)C=C(N)C=C1C","-","EN300-101525","3889","N-(4-amino-2,6-dimethylphenyl)acetamide","-","A55638","25489863","-","-","204.0 - 206.0","?C","205.0","Celsius"
"CC(=O)NCC1=CC=C(Br)C=C1","-","EN300-101529","3891","N-[(4-bromophenyl)methyl]acetamide","-","A55638","25489863","-","-","114.0 - 116.0","?C","115.0","Celsius"
"CC1=CC(C(=O)CCl)=C(C)N1C1=CC(Br)=CC=C1","-","EN300-10153","3892","1-[1-(3-bromophenyl)-2,5-dimethyl-1H-pyrrol-3-yl]-2-chloroethanone","-","A55638","25489863","-","-","102.0 - 104.0","?C","103.0","Celsius"
"CC1=NN(CC2=NC=CC=C2)C(N)=C1","-","EN300-101530","3893","3-methyl-1-(pyridin-2-ylmethyl)-1H-pyrazol-5-amine","-","A55638","25489863","-","-","94.0 - 96.0","?C","95.0","Celsius"
"COC1=CC(=CC=C1)C1=NON=C1N","-","EN300-101532","3895","4-(3-methoxyphenyl)-1,2,5-oxadiazol-3-amine","-","A55638","25489863","-","-","74.0 - 76.0","?C","75.0","Celsius"
"CC1(C)NC(=O)N(C1=O)C1=CC(=CC=C1)C#N","-","EN300-101535","3898","3-(4,4-dimethyl-2,5-dioxoimidazolidin-1-yl)benzonitrile","-","A55638","25489863","-","-","159.0 - 161.0","?C","160.0","Celsius"
"OC1=CC=C(OC2=CC=NC=C2)C=C1","-","EN300-101536","3899","4-(pyridin-4-yloxy)phenol","-","A55638","25489863","-","-","181.0 - 183.0","?C","182.0","Celsius"
"CCCC(N)C1=NN=NN1","-","EN300-101537","3900","1-(1H-1,2,3,4-tetrazol-5-yl)butan-1-amine","-","A55638","25489863","-","-","277.0 - 279.0","?C","278.0","Celsius"
"BrC1=CCOC1=O","-","EN300-101545","3902","3-bromo-2,5-dihydrofuran-2-one","-","A55638","25489863","-","-","53.0 - 55.0","?C","54.0","Celsius"
"CN1C=C(C=C1C(O)=O)C#N","-","EN300-101557","3904","4-cyano-1-methyl-1H-pyrrole-2-carboxylic acid","-","A55638","25489863","-","-","239.0 - 241.0","?C","240.0","Celsius"
"OC(=O)CCC1=CSC2=C1C=CC=C2","-","EN300-101558","3905","3-(1-benzothiophen-3-yl)propanoic acid","-","A55638","25489863","-","-","140.0 - 142.0","?C","141.0","Celsius"
"CC(=O)NC1=CC=C(C=C1)S(=O)(=O)NCC1=CC=C(C=C1)C(O)=O","-","EN300-10156","3906","4-[({[4-(acetylamino)phenyl]sulfonyl}amino)methyl]benzoic acid","-","A55638","25489863","-","-","269.0 - 271.0","?C","270.0","Celsius"
"CC1CNC2=C(C=CC=C2)N(CC2=CC=CC=C2)C1=O","-","EN300-101564","3907","1-benzyl-3-methyl-2,3,4,5-tetrahydro-1H-1,5-benzodiazepin-2-one","-","A55638","25489863","-","-","107.0 - 109.0","?C","108.0","Celsius"
"NC1=C(I)C=CC(=C1)C(O)=O","-","EN300-101565","3908","3-amino-4-iodobenzoic acid","-","A55638","25489863","-","-","209.0 - 211.0","?C","210.0","Celsius"
"CN1CC(=O)NC2=C1N=CC=C2","-","EN300-101566","3909","4-methyl-1H,2H,3H,4H-pyrido[2,3-b]pyrazin-2-one","-","A55638","25489863","-","-","161.0 - 163.0","?C","162.0","Celsius"
"CC(=O)NC1=NC(C(O)=O)=C(Br)C=C1","-","EN300-101567","3910","3-bromo-6-acetamidopyridine-2-carboxylic acid","-","A55638","25489863","-","-","189.0 - 191.0","?C","190.0","Celsius"
"CC1CC(=O)N(CC2=CC=CC=C2)C2=C(N1)C=CC=C2","-","EN300-101568","3911","1-benzyl-4-methyl-2,3,4,5-tetrahydro-1H-1,5-benzodiazepin-2-one","-","A55638","25489863","-","-","110.0 - 112.0","?C","111.0","Celsius"
"OC(=O)CN1N=C(CC1=O)C(F)(F)F","-","EN300-101569","3912","2-[5-oxo-3-(trifluoromethyl)-4,5-dihydro-1H-pyrazol-1-yl]acetic acid","-","A55638","25489863","-","-","218.0 - 220.0","?C","219.0","Celsius"
"CC1=CC(=NN1)[N+]([O-])=O","-","EN300-101589","3916","5-methyl-3-nitro-1H-pyrazole","-","A55638","25489863","-","-","153.0 - 155.0","?C","154.0","Celsius"
"NC(=O)NC(=O)C(Cl)C1=CC=CC=C1","25395-28-2","EN300-10159","3917","N-(aminocarbonyl)-2-chloro-2-phenylacetamide","-","A55638","25489863","-","-","170.0 - 172.0","?C","171.0","Celsius"
"CC1=CC=C(C=C1)C1=NN(C=C1C(O)=O)C1=C(Cl)C=CC=C1","-","EN300-10162","3918","1-(2-chlorophenyl)-3-(4-methylphenyl)-1H-pyrazole-4-carboxylic acid","-","A55638","25489863","-","-","257.0 - 259.0","?C","258.0","Celsius"
"CC(C)(C)OC(=O)NC1=COC=N1","-","EN300-101620","3919","tert-butyl N-(1,3-oxazol-4-yl)carbamate","-","A55638","25489863","-","-","108.0 - 110.0","?C","109.0","Celsius"
"CC1=CC(=CC=C1)C1=NN(C=C1C(O)=O)C1=CC=C(F)C=C1","-","EN300-10165","3920","1-(4-fluorophenyl)-3-(3-methylphenyl)-1H-pyrazole-4-carboxylic acid","-","A55638","25489863","-","-","168.0 - 170.0","?C","169.0","Celsius"
"OC(=O)CSC1=NN=C(O1)C1=CC=CO1","33621-24-8","EN300-10168","3921","{[5-(2-furyl)-1,3,4-oxadiazol-2-yl]thio}acetic acid","-","A55638","25489863","-","-","152.0 - 155.0","?C","154.0","Celsius"
"CC(C)=C(C)C(O)=O","-","EN300-101716","3922","2,3-dimethylbut-2-enoic acid","-","A55638","25489863","-","-","68.0 - 70.0","?C","69.0","Celsius"
"NC1=NC(Br)=CN2C=CN=C12","-","EN300-101717","3923","6-bromoimidazo[1,2-a]pyrazin-8-amine","-","A55638","25489863","-","-","215.0 - 217.0","?C","216.0","Celsius"
"ClCCSC1=C2C=CC(Cl)=CC2=NC=C1","-","EN300-101718","3924","7-chloro-4-[(2-chloroethyl)sulfanyl]quinoline","-","A55638","25489863","-","-","185.0 - 187.0","?C","186.0","Celsius"
"CCCCC1NCCNC1=O","-","EN300-101719","3925","3-butylpiperazin-2-one","-","A55638","25489863","-","-","67.0 - 69.0","?C","68.0","Celsius"
"OC(=O)C1=C2OCCOC2=CC(=C1[N+]([O-])=O)[N+]([O-])=O","-","EN300-101720","3926","6,7-dinitro-2,3-dihydro-1,4-benzodioxine-5-carboxylic acid","-","A55638","25489863","-","-","210.0 - 212.0","?C","211.0","Celsius"
"CCOC(=O)C1=C(N)C=CC(=C1)N1CCNC(=O)C1","-","EN300-101721","3927","ethyl 2-amino-5-(3-oxopiperazin-1-yl)benzoate","-","A55638","25489863","-","-","126.0 - 128.0","?C","127.0","Celsius"
"CN(C)C1=C(N)C=NC=N1","-","EN300-101723","3928","4-N,4-N-dimethylpyrimidine-4,5-diamine","-","A55638","25489863","-","-","97.0 - 99.0","?C","98.0","Celsius"
"CC1=CC=C(SC2(CCCC2)C(O)=O)C=C1","-","EN300-101729","3929","1-[(4-methylphenyl)sulfanyl]cyclopentane-1-carboxylic acid","-","A55638","25489863","-","-","80.0 - 82.0","?C","81.0","Celsius"
"COC1=CC=C(C=C1)C1=NN(CCC#N)C=C1C=C(C#N)C(O)=O","-","EN300-10173","3930","(2Z)-2-cyano-3-[1-(2-cyanoethyl)-3-(4-methoxyphenyl)-1H-pyrazol-4-yl]acrylic acid","-","A55638","25489863","-","-","212.0 - 214.0","?C","213.0","Celsius"
"OC1CCCS(=O)(=O)C1","-","EN300-101736","3931","3-hydroxy-1$l^{6}-thiane-1,1-dione","-","A55638","25489863","-","-","99.0 - 101.0","?C","100.0","Celsius"
"NC1=CC=C(C=C1)C1=NC2=C(S1)C(Cl)=CC=C2","-","EN300-101737","3932","4-(7-chloro-1,3-benzothiazol-2-yl)aniline","-","A55638","25489863","-","-","149.0 - 151.0","?C","150.0","Celsius"
"CCC1=C(C)SC(=C1)C(O)=O","-","EN300-10174","3933","4-ethyl-5-methylthiophene-2-carboxylic acid","-","A55638","25489863","-","-","108.0 - 110.0","?C","109.0","Celsius"
"OC(=O)C1=C(OC(F)F)C(Cl)=CC(Cl)=C1","-","EN300-10176","3935","3,5-dichloro-2-(difluoromethoxy)benzoic acid","-","A55638","25489863","-","-","128.0 - 132.0","?C","130.0","Celsius"
"OC(=O)C1=CC2=C(C=C1)C(=O)N(C1CCS(=O)(=O)C1)C2=O","-","EN300-101776","3936","2-(1,1-dioxo-1$l^{6}-thiolan-3-yl)-1,3-dioxo-2,3-dihydro-1H-isoindole-5-carboxylic acid","-","A55638","25489863","-","-","239.0 - 241.0","?C","240.0","Celsius"
"ClCCC(=O)N(C1CS(=O)(=O)C=C1)C1=CC=CC=C1","-","EN300-101779","3937","3-chloro-N-(1,1-dioxo-2,3-dihydro-1$l^{6}-thiophen-3-yl)-N-phenylpropanamide","-","A55638","25489863","-","-","122.0 - 124.0","?C","123.0","Celsius"
"CC1=C(Br)C=CC(CCC(O)=O)=C1","-","EN300-101790","3939","3-(4-bromo-3-methylphenyl)propanoic acid","-","A55638","25489863","-","-","89.0 - 91.0","?C","90.0","Celsius"
"O=CC1=CN=C(S1)C1=CN=CC=C1","-","EN300-101794","3941","2-(pyridin-3-yl)-1,3-thiazole-5-carbaldehyde","-","A55638","25489863","-","-","139.0 - 141.0","?C","140.0","Celsius"
"N#CC1=CN=C2C=CC=CN12","-","EN300-101795","3942","imidazo[1,2-a]pyridine-3-carbonitrile","-","A55638","25489863","-","-","154.0 - 156.0","?C","155.0","Celsius"
"CS(=O)(=O)C1=C(Cl)C=CC(=C1)C(O)=O","51522-07-7","EN300-10180","3944","4-chloro-3-(methylsulfonyl)benzoic acid","-","A55638","25489863","-","-","216.0 - 218.0","?C","217.0","Celsius"