"SMILES","CASRN","EXTERNALID","N","NAME","NAME","ARTICLEID","PUBMEDID","PAGE","TABLE","Melting Point {measured}","UNIT {Melting Point}","Melting Point {measured, converted}","UNIT {Melting Point}"
"NC1=NC(=CS1)C1=CC=CS1","28989-50-6","EN300-02246","916","4-Thiophen-2-yl-thiazol-2-ylamine","-","A55638","25489863","-","-","136.0 - 138.0","?C","137.0","Celsius"
"NC1=NC(=C(S1)C1=CC=CC=C1)C1=CC=CC=C1","6318-74-7","EN300-02249","917","4,5-Diphenyl-thiazol-2-ylamine","-","A55638","25489863","-","-","181.0 - 183.0","?C","182.0","Celsius"
"NC1=NC(=CS1)C1=C(Cl)SC(Cl)=C1","-","EN300-02250","918","4-(2,5-Dichloro-thiophen-3-yl)-thiazol-2-ylamine","-","A55638","25489863","-","-","144.0 - 146.0","?C","145.0","Celsius"
"NC1=NC(=CS1)C1=CN=CC=C1","30235-27-9","EN300-02252","919","4-Pyridin-3-yl-thiazol-2-ylamine","-","A55638","25489863","-","-","189.0 - 193.0","?C","191.0","Celsius"
"NC1=NC(=CS1)C1=NC=CC=C1","30235-26-8","EN300-02253","920","4-Pyridin-2-yl-thiazol-2-ylamine","-","A55638","25489863","-","-","135.0 - 137.0","?C","136.0","Celsius"
"NC1=NC(=CS1)C1=CC=C(C=C1)C#N","436151-85-8","EN300-02257","922","4-(2-Amino-thiazol-4-yl)-benzonitrile","-","A55638","25489863","-","-","267.0 - 269.0","?C","268.0","Celsius"
"NC1=NC2=C(CCCC2)S1","2933-29-1","EN300-02259","923","4,5,6,7-Tetrahydro-benzothiazol-2-ylamine","-","A55638","25489863","-","-","30.0 - 32.0","?C","31.0","Celsius"
"CC1(C)CC2=C(SC(N)=N2)C(=O)C1","1629-95-4","EN300-02261","924","2-Amino-5,5-dimethyl-5,6-dihydro-4H-benzothiazol-7-one","-","A55638","25489863","-","-","212.0 - 214.0","?C","213.0","Celsius"
"NC1=NC2=C(CCC3=C2C=CC=C3)S1","34176-49-3","EN300-02262","925","4,5-Dihydro-naphtho[1,2-d]thiazol-2-ylamine","-","A55638","25489863","-","-","58.0 - 66.0","?C","62.0","Celsius"
"NC1=NC(=CS1)C1=CC2=C(OCO2)C=C1","-","EN300-02263","926","4-Benzo[1,3]dioxol-5-yl-thiazol-2-ylamine","-","A55638","25489863","-","-","176.0 - 180.0","?C","178.0","Celsius"
"COC1=C(C)C=C(C=C1)C1=CSC(N)=N1","-","EN300-02264","927","4-(4-Methoxy-3-methyl-phenyl)-thiazol-2-ylamine","-","A55638","25489863","-","-","179.0 - 181.0","?C","180.0","Celsius"
"NC1=NC(=CS1)C1=CC2=C(O1)C=CC=C2","3084-04-6","EN300-02267","928","4-Benzofuran-2-yl-thiazol-2-ylamine","-","A55638","25489863","-","-","243.0 - 245.0","?C","244.0","Celsius"
"NC1=NC2=C(S1)C=C(Br)C=C2","15864-32-1","EN300-02269","930","6-Bromo-benzothiazol-2-ylamine","-","A55638","25489863","-","-","119.0 - 121.0","?C","120.0","Celsius"
"COC1=C2N=C(N)SC2=CC(=C1)[N+]([O-])=O","16586-52-0","EN300-02273","932","4-Methoxy-6-nitro-benzothiazol-2-ylamine","-","A55638","25489863","-","-","279.0 - 281.0","?C","280.0","Celsius"
"CC(=O)NC1=CC2=C(C=C1)N=C(N)S2","22307-44-4","EN300-02275","933","N-(2-Amino-benzothiazol-6-yl)-acetamide","-","A55638","25489863","-","-","217.0 - 219.0","?C","218.0","Celsius"
"CC1=CC2=C(N=C(N)S2)C(C)=C1","64036-71-1","EN300-02277","934","4,6-Dimethyl-benzothiazol-2-ylamine","-","A55638","25489863","-","-","135.0 - 137.0","?C","136.0","Celsius"
"NC1=NC2=C(S1)C=C(SC(F)F)C=C2","-","EN300-02278","935","6-Difluoromethylsulfanyl-benzothiazol-2-ylamine","-","A55638","25489863","-","-","105.0 - 107.0","?C","106.0","Celsius"
"NC(=O)C1=C(N)SC2=C1CCCC2","4815-28-5","EN300-02284","937","2-Amino-4,5,6,7-tetrahydro-benzo[b]thiophene-3-carboxylic acid amide","-","A55638","25489863","-","-","153.0 - 155.0","?C","154.0","Celsius"
"NC(=O)C1=C(N)SC2=C1CCC2","77651-38-8","EN300-02286","939","2-Amino-5,6-dihydro-4H-cyclopenta[b]thiophene-3-carboxylic acid amide","-","A55638","25489863","-","-","158.0 - 160.0","?C","159.0","Celsius"
"NC1=C(C2=C(CCCC2)S1)C1=NC2=C(S1)C=CC=C2","143361-87-9","EN300-02287","940","3-Benzothiazol-2-yl-4,5,6,7-tetrahydro-benzo[b]thiophen-2-ylamine","-","A55638","25489863","-","-","100.0 - 104.0","?C","102.0","Celsius"
"CC1CCC2=C(C1)SC(N)=C2C(N)=O","95211-68-0","EN300-02288","941","2-Amino-6-methyl-4,5,6,7-tetrahydro-benzo[b]thiophene-3-carboxylic acid amide","-","A55638","25489863","-","-","188.0 - 190.0","?C","189.0","Celsius"
"CCOC(=O)C1=C(N)SC2=C1CC(C)(C)NC2(C)C","-","EN300-02289","942","2-Amino-5,5,7,7-tetramethyl-4,5,6,7-tetrahydro-thieno[2,3-c]pyridine-3-carboxylic acid ethyl ester","-","A55638","25489863","-","-","95.0 - 97.0","?C","96.0","Celsius"
"CCOC(=O)C1=C(N)SC=C1C1=CC(OC)=C(OC)C=C1","15854-12-3","EN300-02305","944","2-Amino-4-(3,4-dimethoxy-phenyl)-thiophene-3-carboxylic acid ethyl ester","-","A55638","25489863","-","-","223.0 - 225.0","?C","224.0","Celsius"
"BrC1=CN2CC3=C(C=CC=C3)C(=N)N=C2C=C1","-","EN300-02311","947","2-Bromo-11H-benzo[e]pyrido[1,2-a][1,3]diazepin-6-ylideneamine","-","A55638","25489863","-","-","178.0 - 180.0","?C","179.0","Celsius"
"NC1=NC=C(S1)C(O)(C(F)(F)F)C(F)(F)F","-","EN300-02318","949","2-(2-amino-1,3-thiazol-5-yl)-1,1,1,3,3,3-hexafluoropropan-2-ol","-","A55638","25489863","-","-","184.0 - 186.0","?C","185.0","Celsius"
"COC1=C(NC(=O)C2=CC=C(N)C=C2)C=CC=C1","787-59-7","EN300-02322","951","4-Amino-N-(2-methoxy-phenyl)-benzamide","-","A55638","25489863","-","-","162.0 - 164.0","?C","163.0","Celsius"
"COC1=CC=C(NC(=O)C2=CC=C(N)C=C2)C=C1","891-35-0","EN300-02323","952","4-Amino-N-(4-methoxy-phenyl)-benzamide","-","A55638","25489863","-","-","187.0 - 189.0","?C","188.0","Celsius"
"NC1=C(C=CC=C1)C(=O)NC1=CC=C(Cl)C=C1","4943-86-6","EN300-02324","953","2-Amino-N-(4-chloro-phenyl)-benzamide","-","A55638","25489863","-","-","44.0 - 45.0","?C","44.5","Celsius"
"NC1=CC(=CC=C1)C(=O)NC1=CC(=CC=C1)C(F)(F)F","-","EN300-02326","954","3-Amino-N-(3-trifluoromethyl-phenyl)-benzamide","-","A55638","25489863","-","-","114.0 - 115.0","?C","114.0","Celsius"
"CN1N(C(=O)C(NC(=O)C2=CC(N)=CC=C2)=C1C)C1=CC=CC=C1","-","EN300-02328","956","3-Amino-N-(1,5-dimethyl-3-oxo-2-phenyl-2,3-dihydro-1H-pyrazol-4-yl)-benzamide","-","A55638","25489863","-","-","7.0 - 9.0","?C","8.0","Celsius"
"CCNC1=C(N)C=C(C=C1)S(=O)(=O)C(F)(F)F","-","EN300-02329","957","N*1*-Ethyl-4-trifluoromethanesulfonyl-benzene-1,2-diamine","-","A55638","25489863","-","-","149.0 - 151.0","?C","150.0","Celsius"
"NC1=CC=C(C=C1)S(=O)(=O)NC1=CC(=CC=C1)C(F)(F)F","339-40-2","EN300-02330","958","4-Amino-N-(3-trifluoromethyl-phenyl)-benzenesulfonamide","-","A55638","25489863","-","-","113.0 - 115.0","?C","114.0","Celsius"
"CCNC1=C(C=C(C=C1)C(=O)OCC)[N+]([O-])=O","91182-00-2","EN300-02331","959","4-Ethylamino-3-nitro-benzoic acid ethyl ester","-","A55638","25489863","-","-","91.0 - 95.0","?C","93.0","Celsius"
"NC1=CC=C(C=C1)S(=O)(=O)NC1=C(Cl)C=CC=C1","19837-85-5","EN300-02335","960","4-Amino-N-(2-chloro-phenyl)-benzenesulfonamide","-","A55638","25489863","-","-","159.0 - 161.0","?C","160.0","Celsius"
"CC(C)C1=C(NC2=NC3=C(S2)C=CC=C3)C=CC=C1","-","EN300-02340","962","Benzothiazol-2-yl-(2-isopropyl-phenyl)-amine","-","A55638","25489863","-","-","115.0 - 116.0","?C","116.0","Celsius"
"C1CCC(CC1)NC1=NC=CC=C1","15513-16-3","EN300-02351","963","Cyclohexyl-pyridin-2-yl-amine","-","A55638","25489863","-","-","123.0 - 125.0","?C","124.0","Celsius"
"NC1=NNC2=C1C=CC=C2","874-05-5","EN300-02352","964","1H-indazol-3-ylamine","-","A55638","25489863","-","-","152.0 - 154.0","?C","153.0","Celsius"
"CCCCNS(=O)(=O)C1=CC(N)=C(N)C=C1","-","EN300-02363","967","3,4-Diamino-N-butyl-benzenesulfonamide","-","A55638","25489863","-","-","48.0 - 52.0","?C","50.0","Celsius"
"NC1=CC(=C(C=C1)N1CCOCC1)S(=O)(=O)NC1=CC=C(Cl)C=C1","-","EN300-02364","968","5-Amino-N-(4-chloro-phenyl)-2-morpholin-4-yl-benzenesulfonamide","-","A55638","25489863","-","-","236.0 - 238.0","?C","237.0","Celsius"
"NC1=CC(=CC=C1)S(=O)(=O)N1CCCCCC1","91619-39-5","EN300-02365","969","3-(Azepane-1-sulfonyl)-phenylamine","-","A55638","25489863","-","-","73.0 - 77.0","?C","75.0","Celsius"
"CC1=CC(C)=C(NS(=O)(=O)C2=C(Cl)C=CC(N)=C2)C=C1","71215-81-1","EN300-02367","970","5-AMINO-2-CHLORO-N-(2,4-DIMETHYL-PHENYL)-BENZENESULFONAMIDE","-","A55638","25489863","-","-","57.0 - 59.0","?C","58.0","Celsius"
"CC1=C(N)C=C(C=C1)S(=O)(=O)N1CCCCC1","100317-20-2","EN300-02368","971","2-Methyl-5-(piperidine-1-sulfonyl)-phenylamine","-","A55638","25489863","-","-","106.0 - 110.0","?C","108.0","Celsius"
"NC1=C(C=CC(=C1)S(=O)(=O)N1CCOCC1)N1CCCC1","-","EN300-02371","972","5-(Morpholine-4-sulfonyl)-2-pyrrolidin-1-yl-phenylamine","-","A55638","25489863","-","-","179.0 - 181.0","?C","180.0","Celsius"
"CCN(CC)C1=C(N)C=C(C=C1)S(=O)(=O)N1CCOCC1","-","EN300-02372","973","N*1*,N*1*-Diethyl-4-(morpholine-4-sulfonyl)-benzene-1,2-diamine","-","A55638","25489863","-","-","99.0 - 101.0","?C","100.0","Celsius"
"CCN(CC)S(=O)(=O)C1=CC(N)=C(C=C1)N1CCOCC1","22745-68-2","EN300-02373","974","3-Amino-N,N-diethyl-4-morpholin-4-yl-benzenesulfonamide","-","A55638","25489863","-","-","94.0 - 96.0","?C","95.0","Celsius"
"NC1=CC(=C(C=C1)N1CCCCC1)S(=O)(=O)NC1=CC=C(Cl)C=C1","-","EN300-02375","975","5-Amino-N-(4-chloro-phenyl)-2-piperidin-1-yl-benzenesulfonamide","-","A55638","25489863","-","-","145.0 - 147.0","?C","146.0","Celsius"
"CCN(CC)S(=O)(=O)C1=CC(N)=C(C=C1)N1CCCCC1","22745-63-7","EN300-02376","976","3-Amino-N,N-diethyl-4-piperidin-1-yl-benzenesulfonamide","-","A55638","25489863","-","-","75.0 - 77.0","?C","76.0","Celsius"
"NC1=CC2=C(NC(=O)N2)C=C1","95-23-8","EN300-02381","978","5-Amino-1,3-dihydro-benzoimidazol-2-one","-","A55638","25489863","-","-","167.0 - 169.0","?C","168.0","Celsius"
"NC1=NC2=C(S1)C=C(F)C(F)=C2F","-","EN300-02386","979","4,5,6-Trifluoro-benzothiazol-2-ylamine","-","A55638","25489863","-","-","160.0 - 164.0","?C","162.0","Celsius"
"NC1=CC(=C(C=C1)N1CCOCC1)S(=O)(=O)NC1=C(Cl)C=CC(Cl)=C1","-","EN300-02387","980","5-Amino-N-(2,5-dichloro-phenyl)-2-morpholin-4-yl-benzenesulfonamide","-","A55638","25489863","-","-","66.0 - 68.0","?C","67.0","Celsius"
"CCOC1=CC=C(NS(=O)(=O)C2=CC(N)=C(OC)C=C2)C=C1","-","EN300-02394","981","3-Amino-N-(4-ethoxy-phenyl)-4-methoxy-benzenesulfonamide","-","A55638","25489863","-","-","94.0 - 95.0","?C","94.5","Celsius"
"CCN(C1=CC=CC=C1)S(=O)(=O)C1=C(Cl)C=CC(N)=C1","-","EN300-02399","982","5-Amino-2-chloro-N-ethyl-N-phenyl-benzenesulfonamide","-","A55638","25489863","-","-","102.0 - 104.0","?C","103.0","Celsius"
"NC1=C(NS(=O)(=O)C2=CC=C(F)C=C2)C=CC=C1","-","EN300-02402","983","N-(2-Amino-phenyl)-4-fluoro-benzenesulfonamide","-","A55638","25489863","-","-","122.0 - 124.0","?C","123.0","Celsius"
"COC1=C(N)C=C(C=C1)S(=O)(=O)N1CCOCC1","-","EN300-02404","984","2-Methoxy-5-(morpholine-4-sulfonyl)-phenylamine","-","A55638","25489863","-","-","189.0 - 191.0","?C","190.0","Celsius"
"COC1=C(C=C(N)C=C1)S(=O)(=O)N1CCCCC1","-","EN300-02406","985","4-Methoxy-3-(piperidine-1-sulfonyl)-phenylamine","-","A55638","25489863","-","-","93.0 - 95.0","?C","94.0","Celsius"
"COC1=C(N)C=C(C=C1)S(=O)(=O)N1CCCCC1","-","EN300-02408","986","2-Methoxy-5-(piperidine-1-sulfonyl)-phenylamine","-","A55638","25489863","-","-","137.0 - 139.0","?C","138.0","Celsius"
"CCOC1=C(C=C(Br)C=C1)S(=O)(=O)NC1=CC=C(N)C=C1","-","EN300-02409","987","N-(4-Amino-phenyl)-5-bromo-2-ethoxy-benzenesulfonamide","-","A55638","25489863","-","-","77.0 - 79.0","?C","78.0","Celsius"
"NC1=CC=C(C=C1)C1=NC2=C(N1)C=C(N)C=C2","7621-86-5","EN300-02411","988","2-(4-Amino-phenyl)-3H-benzoimidazol-5-ylamine","-","A55638","25489863","-","-","234.0 - 236.0","?C","235.0","Celsius"
"CCN1CCC2=C(C1)SC(N)=N2","17899-49-9","EN300-02413","990","5-Ethyl-4,5,6,7-tetrahydro-thiazolo[5,4-c]pyridin-2-ylamine","-","A55638","25489863","-","-","71.0 - 80.0","?C","75.5","Celsius"
"NC1=NC2=C(CN(CC3=CC=CC=C3)CC2)S1","-","EN300-02414","991","5-Benzyl-4,5,6,7-tetrahydro-thiazolo[5,4-c]pyridin-2-ylamine","-","A55638","25489863","-","-","95.0 - 98.0","?C","96.5","Celsius"
"COC1=C(C=C(N)C=C1)S(=O)(=O)N1CCOCC1","-","EN300-02415","992","4-Methoxy-3-(morpholine-4-sulfonyl)-phenylamine","-","A55638","25489863","-","-","131.0 - 133.0","?C","132.0","Celsius"
"FC1=CC=C(NCCC#N)C=C1","-","EN300-02417","993","3-(4-Fluoro-phenylamino)-propionitrile","-","A55638","25489863","-","-","38.0 - 42.0","?C","40.0","Celsius"
"COC1=CC(NC2=NC3=C(S2)C=CC=C3)=CC=C1","-","EN300-02425","994","Benzothiazol-2-yl-(3-methoxy-phenyl)-amine","-","A55638","25489863","-","-","117.0 - 119.0","?C","118.0","Celsius"
"NC1=CC(=CC=C1)S(=O)(=O)NC1=NCCC1","-","EN300-02429","995","3-Amino-N-(4,5-dihydro-3H-pyrrol-2-yl)-benzenesulfonamide","-","A55638","25489863","-","-","166.0 - 168.0","?C","167.0","Celsius"
"COC1=CC=C(NS(=O)(=O)C2=CC(N)=C(N)C=C2)C=C1","-","EN300-02430","996","3,4-Diamino-N-(4-methoxy-phenyl)-benzenesulfonamide","-","A55638","25489863","-","-","163.0 - 165.0","?C","164.0","Celsius"
"NC1=NN=C(CC2=CC=CC=C2)S1","16502-08-2","EN300-02432","997","5-Benzyl-[1,3,4]thiadiazol-2-ylamine","-","A55638","25489863","-","-","170.0 - 179.0","?C","174.0","Celsius"
"NC1=CC=C(C=C1)S(=O)(=O)N=C1CCCCCN1","-","EN300-02441","1000","4-Amino-N-(4,5,6,7-tetrahydro-3H-azepin-2-yl)-benzenesulfonamide","-","A55638","25489863","-","-","115.0 - 117.0","?C","116.0","Celsius"
"CC1=NN(C(N)=C1)C1=NC=CC=C1","19541-96-9","EN300-02442","1001","5-Methyl-2-pyridin-2-yl-2H-pyrazol-3-ylamine","-","A55638","25489863","-","-","102.0 - 104.0","?C","103.0","Celsius"
"CC1=NN(C(N)=C1)C1=C(C=CC=C1)C(F)(F)F","-","EN300-02443","1002","5-Methyl-2-(2-trifluoromethyl-phenyl)-2H-pyrazol-3-ylamine","-","A55638","25489863","-","-","102.0 - 104.0","?C","103.0","Celsius"
"CC1=NN(C(N)=C1)C1=C(Cl)C=CC(=C1)C(F)(F)F","-","EN300-02444","1003","2-(2-Chloro-5-trifluoromethyl-phenyl)-5-methyl-2H-pyrazol-3-ylamine","-","A55638","25489863","-","-","159.0 - 161.0","?C","160.0","Celsius"
"CC1=NN(C(N)=C1)C1=CC=C(C)C=C1","62535-60-8","EN300-02445","1004","5-Methyl-2-p-tolyl-2H-pyrazol-3-ylamine","-","A55638","25489863","-","-","118.0 - 120.0","?C","119.0","Celsius"
"CC1=NN(C(N)=C1)C1=CC=C(F)C=C1","76606-39-8","EN300-02446","1005","2-(4-Fluoro-phenyl)-5-methyl-2H-pyrazol-3-ylamine","-","A55638","25489863","-","-","109.0 - 111.0","?C","110.0","Celsius"
"CC1=NN(C(N)=C1)C1=NC2=C(O1)C=CC=C2","-","EN300-02449","1007","2-Benzooxazol-2-yl-5-methyl-2H-pyrazol-3-ylamine","-","A55638","25489863","-","-","221.0 - 223.0","?C","222.0","Celsius"
"CC1=NN(C(N)=C1)C1=NC2=C(N1)C=CC=C2","-","EN300-02450","1008","2-(1H-Benzoimidazol-2-yl)-5-methyl-2H-pyrazol-3-ylamine","-","A55638","25489863","-","-","203.0 - 205.0","?C","204.0","Celsius"
"NC1=NN=C(SCC=C)S1","30062-44-3","EN300-02455","1009","5-Allylsulfanyl-[1,3,4]thiadiazol-2-ylamine","-","A55638","25489863","-","-","119.0 - 121.0","?C","120.0","Celsius"
"NC1=C(N)C=C(C=C1)S(=O)(=O)NC1=CC(=CC=C1)C(F)(F)F","-","EN300-02461","1010","3,4-Diamino-N-(3-trifluoromethyl-phenyl)-benzenesulfonamide","-","A55638","25489863","-","-","143.0 - 147.0","?C","145.0","Celsius"
"NC1=NC(=CS1)C1=C(Cl)C=CC=C1","-","EN300-02464","1011","4-(2-Chloro-phenyl)-thiazol-2-ylamine","-","A55638","25489863","-","-","142.0 - 144.0","?C","143.0","Celsius"
"NC1=C(C=CC=C1)C(=O)NCCC1=CC=CC=C1","19050-62-5","EN300-02465","1012","2-Amino-N-phenethyl-benzamide","-","A55638","25489863","-","-","110.0 - 112.0","?C","111.0","Celsius"
"NC1=NC2=C(S1)C=C(OC1=CC=CC=C1)C=C2","-","EN300-02466","1013","6-Phenoxy-benzothiazol-2-ylamine","-","A55638","25489863","-","-","159.0 - 161.0","?C","160.0","Celsius"
"C1CSC(NC2=CC=CC=C2)=NC1","-","EN300-02467","1014","(5,6-Dihydro-4H-[1,3]thiazin-2-yl)-phenyl-amine","-","A55638","25489863","-","-","124.0 - 126.0","?C","125.0","Celsius"
"NC1=C(C=CC=C1)C(=O)NCC1=CC=CO1","117507-63-8","EN300-02469","1015","2-Amino-N-furan-2-ylmethyl-benzamide","-","A55638","25489863","-","-","76.0 - 78.0","?C","77.0","Celsius"
"COC1=CC=C(NS(=O)(=O)C2=C(OC)C=CC(N)=C2)C=C1","-","EN300-02476","1017","5-Amino-2-methoxy-N-(4-methoxy-phenyl)-benzenesulfonamide","-","A55638","25489863","-","-","133.0 - 135.0","?C","134.0","Celsius"
"COC1=C(C=C(N)C=C1)S(=O)(=O)NC1=CC=C(Cl)C=C1","-","EN300-02477","1018","5-Amino-N-(4-chloro-phenyl)-2-methoxy-benzenesulfonamide","-","A55638","25489863","-","-","105.0 - 107.0","?C","106.0","Celsius"
"ClC1=CC(NC2=NC3=C(S2)C=CC=C3)=CC=C1","-","EN300-02485","1019","Benzothiazol-2-yl-(3-chloro-phenyl)-amine","-","A55638","25489863","-","-","173.0 - 175.0","?C","174.0","Celsius"
"NC1=NC(=CS1)C1=CC(=CC=C1)[N+]([O-])=O","57493-24-0","EN300-02487","1020","4-(3-Nitro-phenyl)-thiazol-2-ylamine","-","A55638","25489863","-","-","186.0 - 188.0","?C","187.0","Celsius"
"NC1=NC(=CS1)C1=CC(Br)=CC=C1","105512-81-0","EN300-02488","1021","4-(3-Bromo-phenyl)-thiazol-2-ylamine","-","A55638","25489863","-","-","121.0 - 125.0","?C","123.0","Celsius"
"CN1N(C(=O)C(NS(=O)(=O)C2=CC(N)=C(N)C=C2)=C1C)C1=CC=CC=C1","-","EN300-02490","1022","3,4-Diamino-N-(1,5-dimethyl-3-oxo-2-phenyl-2,3-dihydro-1H-pyrazol-4-yl)-benzenesulfonamide","-","A55638","25489863","-","-","233.0 - 235.0","?C","234.0","Celsius"
"CCCCC1=CC2=C(C=C1)N=C(N)S2","-","EN300-02492","1023","6-Butyl-benzothiazol-2-ylamine","-","A55638","25489863","-","-","95.0 - 101.0","?C","98.0","Celsius"
"NC1=NC2=C(S1)C=C(F)C=C2F","119256-40-5","EN300-02493","1024","4,6-Difluoro-benzothiazol-2-ylamine","-","A55638","25489863","-","-","197.0 - 199.0","?C","198.0","Celsius"
"[O-][N+](=O)C1=CC=C(C=C1)C1CN=C(NC2=CC=CC=C2)S1","-","EN300-02495","1025","[5-(4-Nitro-phenyl)-4,5-dihydro-thiazol-2-yl]-phenyl-amine","-","A55638","25489863","-","-","136.0 - 138.0","?C","137.0","Celsius"
"NC1=C(I)C=C(I)C=C1I","24154-37-8","EN300-02496","1026","2,4,6-Triiodo-phenylamine","-","A55638","25489863","-","-","187.0 - 189.0","?C","188.0","Celsius"
"NC1=NN=C(N1)C(F)(F)F","-","EN300-02499","1027","5-Trifluoromethyl-4H-[1,2,4]triazol-3-ylamine","-","A55638","25489863","-","-","155.0 - 157.0","?C","156.0","Celsius"
"NC1=C(C=CC=C1)C(=O)NC1=CC=C(F)C=C1","-","EN300-02501","1028","2-Amino-N-(4-fluoro-phenyl)-benzamide","-","A55638","25489863","-","-","109.0 - 112.0","?C","110.0","Celsius"
"CNC1(CCCC(=CC2=CC=CS2)C1=O)C1=C(Cl)C=CC=C1","-","EN300-02506","1029","2-(2-Chloro-phenyl)-2-methylamino-6-thiophen-2-ylmethylene-cyclohexanone","-","A55638","25489863","-","-","129.0 - 131.0","?C","130.0","Celsius"
"CCOC1=C(NC2=NCCS2)C=CC=C1","-","EN300-02512","1030","(4,5-Dihydro-thiazol-2-yl)-(2-ethoxy-phenyl)-amine","-","A55638","25489863","-","-","55.0 - 57.0","?C","56.0","Celsius"
"NC1=CC2=C(C=C1)N1CCCCCC1=N2","-","EN300-02514","1031","7,8,9,10-Tetrahydro-6H-benzo[4,5]imidazo[1,2-a]azepin-3-ylamine","-","A55638","25489863","-","-","180.0 - 182.0","?C","181.0","Celsius"
"COC1=C(OC)C=C2C(NCCC2=C1)C1=CC=CS1","-","EN300-02517","1032","6,7-Dimethoxy-1-thiophen-2-yl-1,2,3,4-tetrahydro-isoquinoline","-","A55638","25489863","-","-","112.0 - 115.0","?C","114.0","Celsius"
"CN1C(=O)C2=C(C=C(N)C=C2)C1=O","2257-85-4","EN300-02523","1033","5-Amino-2-methyl-isoindole-1,3-dione","-","A55638","25489863","-","-","247.0 - 249.0","?C","248.0","Celsius"
"NC1=NC2=C3C=CC=CC3=CC=C2S1","40172-65-4","EN300-02524","1034","Naphtho[1,2-d]thiazol-2-ylamine","-","A55638","25489863","-","-","134.0 - 136.0","?C","135.0","Celsius"
"NC1=CC=C(C=C1)C1=NC2=C(S1)C=CC=C2","6278-73-5","EN300-02527","1035","4-Benzothiazol-2-yl-phenylamine","-","A55638","25489863","-","-","149.0 - 151.0","?C","150.0","Celsius"
"NC1=CC(=CC=C1)C1=NC2=C(S1)C=CC=C2","41230-21-1","EN300-02528","1036","3-Benzothiazol-2-yl-phenylamine","-","A55638","25489863","-","-","138.0 - 140.0","?C","139.0","Celsius"
"NC1=CC(=CC=C1)C1=NN=C2CCCCCN12","743444-21-5","EN300-02530","1037","3-(6,7,8,9-Tetrahydro-5H-[1,2,4]triazolo[4,3-a]azepin-3-yl)-phenylamine","-","A55638","25489863","-","-","200.0 - 202.0","?C","201.0","Celsius"
"NC1=CC=C(C=C1)C1=CN2C=CSC2=N1","183668-02-2","EN300-02531","1038","4-Imidazo[2,1-b]thiazol-6-yl-phenylamine","-","A55638","25489863","-","-","199.0 - 201.0","?C","200.0","Celsius"
"NC1=C(C=CC(=C1)C(F)(F)F)N1C=NC=N1","-","EN300-02533","1040","2-[1,2,4]Triazol-1-yl-5-trifluoromethyl-phenylamine","-","A55638","25489863","-","-","119.0 - 121.0","?C","120.0","Celsius"
"NC1=NC=C(CC2=C(Cl)C=CC=C2)S1","-","EN300-02538","1043","5-(2-Chloro-benzyl)-thiazol-2-ylamine","-","A55638","25489863","-","-","97.0 - 99.0","?C","98.0","Celsius"
"NC1=NC=C(CC2=C(Cl)C(Cl)=CC=C2)S1","-","EN300-02540","1044","5-(2,3-Dichloro-benzyl)-thiazol-2-ylamine","-","A55638","25489863","-","-","140.0 - 142.0","?C","141.0","Celsius"