"SMILES","CASRN","EXTERNALID","N","NAME","NAME","ARTICLEID","PUBMEDID","PAGE","TABLE","Melting Point {measured}","UNIT {Melting Point}","Melting Point {measured, converted}","UNIT {Melting Point}"
"OC(=O)C1=CC=C(O1)C1=CC=CO1","-","EN300-109059","5565","5-(furan-2-yl)furan-2-carboxylic acid","-","A55638","25489863","-","-","147.0 - 149.0","?C","148.0","Celsius"
"CN1C(CO)=NC2=C1C=CC(=C2)C(F)(F)F","-","EN300-109063","5566","[1-methyl-5-(trifluoromethyl)-1H-1,3-benzodiazol-2-yl]methanol","-","A55638","25489863","-","-","170.0 - 172.0","?C","171.0","Celsius"
"NS(=O)(=O)C1=CC(C#N)=C(Cl)C=C1","-","EN300-109075","5568","4-chloro-3-cyanobenzene-1-sulfonamide","-","A55638","25489863","-","-","219.0 - 221.0","?C","220.0","Celsius"
"CC1=C(C=CC(O)=O)C=CC(N)=N1","-","EN300-109102","5569","3-(6-amino-2-methylpyridin-3-yl)prop-2-enoic acid","-","A55638","25489863","-","-","253.0 - 255.0","?C","254.0","Celsius"
"CCCC1=C(NC(N)=S)C=CC=C1","-","EN300-109112","5571","(2-propylphenyl)thiourea","-","A55638","25489863","-","-","116.0 - 118.0","?C","117.0","Celsius"
"CCC1=NNC(N)=N1","-","EN300-109113","5572","3-ethyl-1H-1,2,4-triazol-5-amine","-","A55638","25489863","-","-","154.0 - 156.0","?C","155.0","Celsius"
"COC1=CC=C(C=C1)N(C(C)=O)C1=NC(C=O)=CS1","-","EN300-10912","5573","N-(4-formyl-1,3-thiazol-2-yl)-N-(4-methoxyphenyl)acetamide","-","A55638","25489863","-","-","180.0 - 183.0","?C","182.0","Celsius"
"CCC1=C(C=CC=C1)N(C(C)=O)C1=NC(CN=C=S)=CS1","-","EN300-10913","5574","N-(2-ethylphenyl)-N-[4-(isothiocyanatomethyl)-1,3-thiazol-2-yl]acetamide","-","A55638","25489863","-","-","96.0 - 98.0","?C","97.0","Celsius"
"CN(C)C1=C(C)C=CC(=C1)S(N)(=O)=O","-","EN300-109143","5576","3-(dimethylamino)-4-methylbenzene-1-sulfonamide","-","A55638","25489863","-","-","126.0 - 128.0","?C","127.0","Celsius"
"OC(=O)CC1CCSCC1","-","EN300-109144","5577","2-(thian-4-yl)acetic acid","-","A55638","25489863","-","-","69.0 - 71.0","?C","70.0","Celsius"
"NS(=O)(=O)CCC1=CC=C(C=C1)[N+]([O-])=O","-","EN300-109145","5578","2-(4-nitrophenyl)ethane-1-sulfonamide","-","A55638","25489863","-","-","118.0 - 120.0","?C","119.0","Celsius"
"FC(F)(F)C1=CC2=C(OCC(=O)N2)C=C1","-","EN300-109146","5579","6-(trifluoromethyl)-3,4-dihydro-2H-1,4-benzoxazin-3-one","-","A55638","25489863","-","-","165.0 - 167.0","?C","166.0","Celsius"
"ClC1=C2OCC(=O)NC2=CC=C1","-","EN300-109147","5580","8-chloro-3,4-dihydro-2H-1,4-benzoxazin-3-one","-","A55638","25489863","-","-","201.0 - 203.0","?C","202.0","Celsius"
"CC1=CC(C)=C(C=C1)C1(C)NC(=O)NC1=O","-","EN300-109151","5581","5-(2,4-dimethylphenyl)-5-methylimidazolidine-2,4-dione","-","A55638","25489863","-","-","144.0 - 146.0","?C","145.0","Celsius"
"COC1=CC(=CC=C1)C1=NN=NN1","73096-36-3","EN300-10916","5582","5-(3-methoxyphenyl)-1h-tetrazole","-","A55638","25489863","-","-","181.0 - 183.0","?C","182.0","Celsius"
"O=C1NC(=O)C(N1)(C1CC1)C1=CC=CS1","-","EN300-109164","5583","5-cyclopropyl-5-(thiophen-2-yl)imidazolidine-2,4-dione","-","A55638","25489863","-","-","199.0 - 201.0","?C","200.0","Celsius"
"CC1CC(C)CC2(C1)NC(=O)NC2=O","-","EN300-109179","5584","7,9-dimethyl-1,3-diazaspiro[4.5]decane-2,4-dione","-","A55638","25489863","-","-","299.0 - 301.0","?C","300.0","Celsius"
"COC1=CC(=CC=C1)C1=NOC(CCl)=N1","-","EN300-10922","5586","5-(chloromethyl)-3-(3-methoxyphenyl)-1,2,4-oxadiazole","-","A55638","25489863","-","-","38.0 - 40.0","?C","39.0","Celsius"
"COC1=C(C=CC=C1)C(=O)C=C1NC(=O)CS1","-","EN300-10924","5588","(2E)-2-[2-(2-methoxyphenyl)-2-oxoethylidene]-1,3-thiazolidin-4-one","-","A55638","25489863","-","-","173.0 - 175.0","?C","174.0","Celsius"
"CC1(C)CC2=C(C=CC=C2)C1=O","-","EN300-109248","5589","2,2-dimethyl-2,3-dihydro-1H-inden-1-one","-","A55638","25489863","-","-","41.0 - 43.0","?C","42.0","Celsius"
"CC1=CC(C)=C(OCCCC(O)=O)C=C1","-","EN300-109268","5591","4-(2,4-dimethylphenoxy)butanoic acid","-","A55638","25489863","-","-","126.0 - 128.0","?C","127.0","Celsius"
"CC1=NN=C(CCl)S1","-","EN300-109294","5593","2-(chloromethyl)-5-methyl-1,3,4-thiadiazole","-","A55638","25489863","-","-","76.0 - 78.0","?C","77.0","Celsius"
"CC(NC(=O)OC(C)(C)C)C1=CC=C(CN)C=C1","-","EN300-109298","5595","tert-butyl N-{1-[4-(aminomethyl)phenyl]ethyl}carbamate","-","A55638","25489863","-","-","78.0 - 80.0","?C","79.0","Celsius"
"NNC1=NC(=CC=N1)N1CCOCC1","-","EN300-109301","5597","4-(2-hydrazinylpyrimidin-4-yl)morpholine","-","A55638","25489863","-","-","146.0 - 148.0","?C","147.0","Celsius"
"COCCCN1C(=O)C2=C(C=C(C=C2)C(O)=O)C1=O","-","EN300-10932","5602","2-(3-methoxypropyl)-1,3-dioxoisoindoline-5-carboxylic acid","-","A55638","25489863","-","-","147.0 - 149.0","?C","148.0","Celsius"
"OC(=O)C1=CC2=C(C=C1)C(=O)N(C1CCCCC1)C2=O","67822-74-6","EN300-10933","5603","2-cyclohexyl-1,3-dioxoisoindoline-5-carboxylic acid","-","A55638","25489863","-","-","188.0 - 201.0","?C","194.0","Celsius"
"COC(=O)C(Cl)C1=CC(Cl)=CC(Cl)=C1","-","EN300-109358","5606","methyl 2-chloro-2-(3,5-dichlorophenyl)acetate","-","A55638","25489863","-","-","56.0 - 58.0","?C","57.0","Celsius"
"CC1=NN(C2CCOCC2)C(N)=C1","-","EN300-109359","5607","3-methyl-1-(oxan-4-yl)-1H-pyrazol-5-amine","-","A55638","25489863","-","-","177.0 - 179.0","?C","178.0","Celsius"
"CCOC1=NC(C=O)=CC=C1","-","EN300-109361","5608","6-ethoxypyridine-2-carbaldehyde","-","A55638","25489863","-","-","55.0 - 57.0","?C","56.0","Celsius"
"CCOC(=O)C1=CN(CCC#N)N=C1","-","EN300-109369","5609","ethyl 1-(2-cyanoethyl)-1H-pyrazole-4-carboxylate","-","A55638","25489863","-","-","87.0 - 89.0","?C","88.0","Celsius"
"CC(C)(C)N1N=CC2=C1N=CNC2=O","-","EN300-109370","5610","1-tert-butyl-1H,4H,5H-pyrazolo[3,4-d]pyrimidin-4-one","-","A55638","25489863","-","-","226.0 - 228.0","?C","227.0","Celsius"
"O=C1NC(=O)C2(CCSC2)N1","-","EN300-10938","5611","7-thia-1,3-diazaspiro[4.4]nonane-2,4-dione","-","A55638","25489863","-","-","243.0 - 245.0","?C","244.0","Celsius"
"[O-][N+](=O)C1=CNC=C(Br)C1=O","-","EN300-109383","5612","3-bromo-5-nitropyridin-4-ol","-","A55638","25489863","-","-","332.0 - 334.0","?C","333.0","Celsius"
"BrC1=CC2=C(CCNC2=O)C=C1","-","EN300-109389","5613","7-bromo-1,2,3,4-tetrahydroisoquinolin-1-one","-","A55638","25489863","-","-","144.0 - 146.0","?C","145.0","Celsius"
"CC1=C(C(C)=C(N1)C(O)=O)S(N)(=O)=O","-","EN300-109393","5615","3,5-dimethyl-4-sulfamoyl-1H-pyrrole-2-carboxylic acid","-","A55638","25489863","-","-","214.0 - 216.0","?C","215.0","Celsius"
"CC(N)C1=NC(=CS1)C1=CC=C(Br)C=C1","-","EN300-109397","5616","1-[4-(4-bromophenyl)-1,3-thiazol-2-yl]ethan-1-amine","-","A55638","25489863","-","-","77.0 - 79.0","?C","78.0","Celsius"
"CC1(C)C(=O)NC2=C1C=C(C=C2)C(=O)CCl","-","EN300-109398","5617","5-(2-chloroacetyl)-3,3-dimethyl-2,3-dihydro-1H-indol-2-one","-","A55638","25489863","-","-","233.0 - 235.0","?C","234.0","Celsius"
"OC(CC1COCCN1)C1=CC=CO1","-","EN300-109447","5622","1-(furan-2-yl)-2-(morpholin-3-yl)ethan-1-ol","-","A55638","25489863","-","-","84.0 - 86.0","?C","85.0","Celsius"
"CC1=CC=C(NC2=NC(CCl)=NC(N)=N2)C=C1","99860-36-3","EN300-10945","5623","6-(chloromethyl)-N-(4-methylphenyl)-1,3,5-triazine-2,4-diamine","-","A55638","25489863","-","-","158.0 - 160.0","?C","159.0","Celsius"
"CCN(CC)C1=NC(NN)=NC=C1","-","EN300-109465","5624","N,N-diethyl-2-hydrazinylpyrimidin-4-amine","-","A55638","25489863","-","-","84.0 - 86.0","?C","85.0","Celsius"
"COC(=O)C(O)C1=CC(Cl)=CC(Cl)=C1","-","EN300-109480","5625","methyl 2-(3,5-dichlorophenyl)-2-hydroxyacetate","-","A55638","25489863","-","-","80.0 - 82.0","?C","81.0","Celsius"
"OC(=O)C1CCC2=NN=C(C(F)F)N2C1","-","EN300-109481","5626","3-(difluoromethyl)-5H,6H,7H,8H-[1,2,4]triazolo[4,3-a]pyridine-6-carboxylic acid","-","A55638","25489863","-","-","215.0 - 217.0","?C","216.0","Celsius"
"CC(C)(C)C1=CC=C(S1)C(O)=O","-","EN300-109496","5628","5-tert-butylthiophene-2-carboxylic acid","-","A55638","25489863","-","-","119.0 - 121.0","?C","120.0","Celsius"
"CC1=C(F)C=C(Cl)C(=C1)[N+]([O-])=O","-","EN300-109505","5630","1-Chloro-5-fluoro-4-methyl-2-nitrobenzene","-","A55638","25489863","-","-","43.0 - 45.0","?C","44.0","Celsius"
"CN(C)CCCNC(=O)C1=C(Cl)N=CC=C1","-","EN300-10951","5632","2-chloro-N-[3-(dimethylamino)propyl]nicotinamide","-","A55638","25489863","-","-","97.0 - 101.0","?C","99.0","Celsius"
"CC1=C(C=CC=C1C(O)=O)S(Cl)(=O)=O","-","EN300-109516","5634","3-(chlorosulfonyl)-2-methylbenzoic acid","-","A55638","25489863","-","-","169.0 - 171.0","?C","170.0","Celsius"
"CN(C1=CC=C(C=C1)C(O)=O)S(=O)(=O)C1=CC=C(C)C=C1","16879-68-8","EN300-10952","5635","4-{methyl[(4-methylphenyl)sulfonyl]amino}benzoic acid","-","A55638","25489863","-","-","188.0 - 190.0","?C","189.0","Celsius"
"OC(=O)C1=C(Cl)C(F)=CC(=C1)S(Cl)(=O)=O","-","EN300-109521","5636","2-chloro-5-(chlorosulfonyl)-3-fluorobenzoic acid","-","A55638","25489863","-","-","149.0 - 151.0","?C","150.0","Celsius"
"O=S(=O)(N1CCNCC1)C1=CC2=C(CCCC2)C=C1","-","EN300-10953","5637","1-(5,6,7,8-tetrahydronaphthalen-2-ylsulfonyl)piperazine","-","A55638","25489863","-","-","110.0 - 112.0","?C","111.0","Celsius"
"OC(=O)CCC1=CC(Cl)=C(O)C=C1","-","EN300-109533","5638","3-(3-chloro-4-hydroxyphenyl)propanoic acid","-","A55638","25489863","-","-","84.0 - 86.0","?C","85.0","Celsius"
"OC(=O)CC1COC(=O)C1","-","EN300-109535","5639","2-(5-oxooxolan-3-yl)acetic acid","-","A55638","25489863","-","-","83.0 - 85.0","?C","84.0","Celsius"
"CC(O)C1=CN(CC(O)=O)N=N1","-","EN300-109540","5640","2-[4-(1-hydroxyethyl)-1H-1,2,3-triazol-1-yl]acetic acid","-","A55638","25489863","-","-","134.0 - 136.0","?C","135.0","Celsius"
"CCOC(=O)C1=C(CC)C(C(=O)OCC)=C(C)N1","-","EN300-109547","5641","2,4-diethyl 3-ethyl-5-methyl-1H-pyrrole-2,4-dicarboxylate","-","A55638","25489863","-","-","108.0 - 110.0","?C","109.0","Celsius"
"CCC(O)(C(N)=O)C1=CC=C(Br)C=C1","-","EN300-109548","5642","2-(4-bromophenyl)-2-hydroxybutanamide","-","A55638","25489863","-","-","146.0 - 148.0","?C","147.0","Celsius"
"COC(=O)C1=CC(N)=C(OCC2=CC=CC=C2)C=C1","-","EN300-109558","5646","methyl 3-amino-4-(benzyloxy)benzoate","-","A55638","25489863","-","-","96.0 - 98.0","?C","97.0","Celsius"
"COC1=CC=C(C=C1)N1C(S)=NN=C1C1=CC=NC=C1","-","EN300-10956","5647","4-(4-methoxyphenyl)-5-pyridin-4-yl-4H-1,2,4-triazole-3-thiol","-","A55638","25489863","-","-","242.0 - 244.0","?C","243.0","Celsius"
"O=C(NC1CCCCCC1)C1=CC=CO1","-","EN300-109563","5648","N-cycloheptylfuran-2-carboxamide","-","A55638","25489863","-","-","99.0 - 101.0","?C","100.0","Celsius"
"[O-][N+](=O)C1=C(Cl)C=CC(CN2C(=O)CNC2=O)=C1","-","EN300-109564","5649","3-[(4-chloro-3-nitrophenyl)methyl]imidazolidine-2,4-dione","-","A55638","25489863","-","-","183.0 - 185.0","?C","184.0","Celsius"
"[O-][N+](=O)C1=C(Cl)C=CC(CN2C=CC=CC2=O)=C1","-","EN300-109566","5650","1-[(4-chloro-3-nitrophenyl)methyl]-1,2-dihydropyridin-2-one","-","A55638","25489863","-","-","92.0 - 94.0","?C","93.0","Celsius"
"SC1=NC2=C(C=CC=C2)N1C1CCCCC1","-","EN300-10957","5651","1-cyclohexyl-1H-benzimidazole-2-thiol","-","A55638","25489863","-","-","178.0 - 182.0","?C","180.0","Celsius"
"FC(F)(F)C1=NNC2=C1C=NC=C2","-","EN300-109576","5652","3-(trifluoromethyl)-1H-pyrazolo[4,3-c]pyridine","-","A55638","25489863","-","-","227.0 - 229.0","?C","228.0","Celsius"
"CC1CCC2(CC1)NC(=O)N(CC(O)=O)C2=O","-","EN300-10960","5655","(8-methyl-2,4-dioxo-1,3-diazaspiro[4.5]dec-3-yl)acetic acid","-","A55638","25489863","-","-","223.0 - 225.0","?C","224.0","Celsius"
"NS(=O)(=O)C1=CC(=C(Br)C=C1)[N+]([O-])=O","-","EN300-109604","5656","4-bromo-3-nitrobenzene-1-sulfonamide","-","A55638","25489863","-","-","185.0 - 187.0","?C","186.0","Celsius"
"CC1=CC=C(C=C1)C1(C)NC(=O)N(CC(O)=O)C1=O","-","EN300-10961","5657","[4-methyl-4-(4-methylphenyl)-2,5-dioxoimidazolidin-1-yl]acetic acid","-","A55638","25489863","-","-","206.0 - 208.0","?C","207.0","Celsius"
"CCC1CCC2(CC1)NC(=O)N(CC(O)=O)C2=O","-","EN300-10962","5658","(8-ethyl-2,4-dioxo-1,3-diazaspiro[4.5]dec-3-yl)acetic acid","-","A55638","25489863","-","-","214.0 - 216.0","?C","215.0","Celsius"
"SC1=NC2=C(C=CC=C2)N1CC=C","87216-53-3","EN300-10964","5659","1-allyl-1H-benzimidazole-2-thiol","-","A55638","25489863","-","-","109.0 - 111.0","?C","110.0","Celsius"
"CCOC(=O)C1=CC(Cl)=C(N=C1)C(O)=O","-","EN300-109645","5660","3-chloro-5-(ethoxycarbonyl)pyridine-2-carboxylic acid","-","A55638","25489863","-","-","114.0 - 116.0","?C","115.0","Celsius"
"CN(C)S(=O)(=O)C1=CC(C(O)=O)=C(C=C1)N1CCOCC1","-","EN300-10966","5661","5-[(dimethylamino)sulfonyl]-2-morpholin-4-ylbenzoic acid","-","A55638","25489863","-","-","218.0 - 220.0","?C","219.0","Celsius"
"CC(C)(C)OC(=O)NCC1=NNC=C1","-","EN300-109664","5662","tert-butyl N-(1H-pyrazol-3-ylmethyl)carbamate","-","A55638","25489863","-","-","104.0 - 106.0","?C","105.0","Celsius"
"CC1=NN(C(=O)OC(C)(C)C)C(N)=C1","-","EN300-109665","5663","tert-butyl 5-amino-3-methyl-1H-pyrazole-1-carboxylate","-","A55638","25489863","-","-","135.0 - 137.0","?C","136.0","Celsius"
"CC(=O)CSC1=C(C=CC=C1)C(O)=O","-","EN300-10967","5664","2-[(2-oxopropyl)thio]benzoic acid","-","A55638","25489863","-","-","158.0 - 160.0","?C","159.0","Celsius"
"CC(=O)NCCNC(=O)C1=C(N)C=CC=C1","-","EN300-109671","5665","N-{2-[(2-aminophenyl)formamido]ethyl}acetamide","-","A55638","25489863","-","-","128.0 - 130.0","?C","129.0","Celsius"
"NS(=O)(=O)C1=CC(O)=CC=C1","-","EN300-109672","5666","3-hydroxybenzene-1-sulfonamide","-","A55638","25489863","-","-","159.0 - 161.0","?C","160.0","Celsius"
"CC(C)N1C(C)=CC(C(=O)CCl)=C1C","-","EN300-10968","5667","2-chloro-1-(1-isopropyl-2,5-dimethyl-1H-pyrrol-3-yl)ethanone","-","A55638","25489863","-","-","45.0 - 47.0","?C","46.0","Celsius"
"NC1=C(Br)C=C(C=N1)C(O)=O","-","EN300-109680","5668","6-amino-5-bromopyridine-3-carboxylic acid","-","A55638","25489863","-","-","299.0 - 301.0","?C","300.0","Celsius"
"NC(=O)C1=NC=C(N)C=C1","-","EN300-109681","5669","5-aminopyridine-2-carboxamide","-","A55638","25489863","-","-","169.0 - 171.0","?C","170.0","Celsius"
"CC(=O)C1=C(C)N(CCS(C)(=O)=O)N=C1C","-","EN300-109682","5670","1-[1-(2-methanesulfonylethyl)-3,5-dimethyl-1H-pyrazol-4-yl]ethan-1-one","-","A55638","25489863","-","-","139.0 - 141.0","?C","140.0","Celsius"
"ClC1=CC=C(S1)C1=NC2=C(CCC2)C(=O)N1","-","EN300-109685","5671","2-(5-chlorothiophen-2-yl)-3H,4H,5H,6H,7H-cyclopenta[d]pyrimidin-4-one","-","A55638","25489863","-","-","276.0 - 278.0","?C","277.0","Celsius"
"CC(C)(O)C1=CC2=C(NC=C2)C=C1","-","EN300-109689","5672","2-(1H-indol-5-yl)propan-2-ol","-","A55638","25489863","-","-","110.0 - 112.0","?C","111.0","Celsius"
"COC1=C(C=C(C=CC(O)=O)C=C1)S(=O)(=O)N(C)C","-","EN300-10969","5673","(2E)-3-{3-[(dimethylamino)sulfonyl]-4-methoxyphenyl}acrylic acid","-","A55638","25489863","-","-","229.0 - 231.0","?C","230.0","Celsius"
"CN(C)C(C(O)=O)C1=CC(Cl)=CC(Cl)=C1","-","EN300-109690","5674","2-(3,5-dichlorophenyl)-2-(dimethylamino)acetic acid","-","A55638","25489863","-","-","170.0 - 172.0","?C","171.0","Celsius"
"NNC1=C(F)C=C(C=C1F)C(=O)NC1CC1","-","EN300-109691","5675","N-cyclopropyl-3,5-difluoro-4-hydrazinylbenzamide","-","A55638","25489863","-","-","204.0 - 206.0","?C","205.0","Celsius"
"ClS(=O)(=O)C1=CC2=C(CCS2(=O)=O)C=C1","-","EN300-109695","5676","1,1-dioxo-2,3-dihydro-1$l^{6}-benzothiophene-6-sulfonyl chloride","-","A55638","25489863","-","-","128.0 - 130.0","?C","129.0","Celsius"
"NC1=CC(=CC=C1)C1=NC=CN1CC(O)=O","-","EN300-109697","5677","2-[2-(3-aminophenyl)-1H-imidazol-1-yl]acetic acid","-","A55638","25489863","-","-","249.0 - 251.0","?C","250.0","Celsius"
"CC(C)N1N=CC2=C1C=CC(=C2)S(N)(=O)=O","-","EN300-109698","5678","1-(propan-2-yl)-1H-indazole-5-sulfonamide","-","A55638","25489863","-","-","168.0 - 170.0","?C","169.0","Celsius"
"OC(=O)C1=CC=C(C=C1)S(=O)(=O)NC1=NC=CS1","-","EN300-109701","5679","4-[(1,3-thiazol-2-yl)sulfamoyl]benzoic acid","-","A55638","25489863","-","-","289.0 - 291.0","?C","290.0","Celsius"
"CC1=NC=CN1C1=NC(F)=CC=C1","-","EN300-109724","5682","2-fluoro-6-(2-methyl-1H-imidazol-1-yl)pyridine","-","A55638","25489863","-","-","97.0 - 99.0","?C","98.0","Celsius"
"CC1=NC(C)=C(C#N)C(Cl)=C1","-","EN300-109725","5683","4-chloro-2,6-dimethylpyridine-3-carbonitrile","-","A55638","25489863","-","-","65.0 - 67.0","?C","66.0","Celsius"
"OC(=O)C1=CN(CCOC2=C(Cl)C=C(C=O)C=C2)N=N1","-","EN300-109726","5684","1-[2-(2-chloro-4-formylphenoxy)ethyl]-1H-1,2,3-triazole-4-carboxylic acid","-","A55638","25489863","-","-","189.0 - 191.0","?C","190.0","Celsius"
"FC1=NC(=CC=C1)N1C=CN=C1","-","EN300-109727","5685","2-fluoro-6-(1H-imidazol-1-yl)pyridine","-","A55638","25489863","-","-","87.0 - 89.0","?C","88.0","Celsius"
"COC1=C(C=C(C=CC(O)=O)C=C1)S(=O)(=O)NC(C)C","-","EN300-10973","5686","(2E)-3-{3-[(isopropylamino)sulfonyl]-4-methoxyphenyl}acrylic acid","-","A55638","25489863","-","-","202.0 - 204.0","?C","203.0","Celsius"
"CNC(=O)CCC(F)(F)F","-","EN300-109735","5688","4,4,4-trifluoro-N-methylbutanamide","-","A55638","25489863","-","-","111.0 - 113.0","?C","112.0","Celsius"
"NC1=NC(=CN1)C(F)(F)F","-","EN300-109746","5691","4-(trifluoromethyl)-1H-imidazol-2-amine","-","A55638","25489863","-","-","121.0 - 123.0","?C","122.0","Celsius"
"COC(=O)N1CCC2=NNC(=O)C=C2C1","-","EN300-109747","5692","methyl 3-oxo-2H,3H,5H,6H,7H,8H-pyrido[4,3-c]pyridazine-6-carboxylate","-","A55638","25489863","-","-","189.0 - 191.0","?C","190.0","Celsius"
"CNS(=O)(=O)C1=C(OC)C=CC(C=CC(O)=O)=C1","-","EN300-10975","5693","(2E)-3-{4-methoxy-3-[(methylamino)sulfonyl]phenyl}acrylic acid","-","A55638","25489863","-","-","238.0 - 240.0","?C","239.0","Celsius"
"O=C1NC(=O)C(=O)N1CCC1=CCCCC1","-","EN300-10976","5694","1-(2-cyclohex-1-en-1-ylethyl)imidazolidine-2,4,5-trione","-","A55638","25489863","-","-","127.0 - 129.0","?C","128.0","Celsius"
"CNCC1=NC(=CN1)C1=CC=CC=C1","-","EN300-109761","5695","methyl[(4-phenyl-1H-imidazol-2-yl)methyl]amine","-","A55638","25489863","-","-","117.0 - 119.0","?C","118.0","Celsius"
"CC1=C2NC(=C(CC(O)=O)C2=CC=C1)C1=CC=CC=C1","-","EN300-109768","5697","2-(7-methyl-2-phenyl-1H-indol-3-yl)acetic acid","-","A55638","25489863","-","-","159.0 - 161.0","?C","160.0","Celsius"
"[O-][N+](=O)C1=CNC(=C1)C(=O)CCl","53391-46-1","EN300-10979","5698","2-chloro-1-(4-nitro-1H-pyrrol-2-yl)ethanone","-","A55638","25489863","-","-","199.0 - 201.0","?C","200.0","Celsius"
"CN(C)S(=O)(=O)C1=CC(=C(F)C=C1)[N+]([O-])=O","-","EN300-109803","5700","4-fluoro-N,N-dimethyl-3-nitrobenzene-1-sulfonamide","-","A55638","25489863","-","-","118.0 - 120.0","?C","119.0","Celsius"
"CC1=COC(=N1)C1=C(C)C=CC(N)=C1","-","EN300-109804","5701","4-methyl-3-(4-methyl-1,3-oxazol-2-yl)aniline","-","A55638","25489863","-","-","52.0 - 54.0","?C","53.0","Celsius"
"NC1=C(Cl)N=NC(Cl)=N1","-","EN300-109806","5702","dichloro-1,2,4-triazin-5-amine","-","A55638","25489863","-","-","198.0 - 200.0","?C","199.0","Celsius"
"OC(=O)C1=CC(O)=C(Br)C=C1","-","EN300-109810","5704","4-bromo-3-hydroxybenzoic acid","-","A55638","25489863","-","-","219.0 - 221.0","?C","220.0","Celsius"
"CN1C=NC(=N1)C1=CC(N)=CC=C1","-","EN300-109814","5705","3-(1-methyl-1H-1,2,4-triazol-3-yl)aniline","-","A55638","25489863","-","-","184.0 - 186.0","?C","185.0","Celsius"
"NC1=C(C=CC(Cl)=C1)N1CCC(CO)CC1","-","EN300-109829","5707","[1-(2-amino-4-chlorophenyl)piperidin-4-yl]methanol","-","A55638","25489863","-","-","144.0 - 146.0","?C","145.0","Celsius"
"ClC1=NC(=CC=N1)N1CCOCC1","-","EN300-109832","5708","4-(2-chloropyrimidin-4-yl)morpholine","-","A55638","25489863","-","-","111.0 - 113.0","?C","112.0","Celsius"
"CC(C)(C)C1=NC(=CC(=O)N1)C(C)(C)C","-","EN300-109834","5709","2,6-di-tert-butyl-3,4-dihydropyrimidin-4-one","-","A55638","25489863","-","-","163.0 - 165.0","?C","164.0","Celsius"
"CN1C=NC(=C1OC1=CC=C(Br)C=C1)[N+]([O-])=O","-","EN300-109836","5710","5-(4-bromophenoxy)-1-methyl-4-nitro-1H-imidazole","-","A55638","25489863","-","-","129.0 - 131.0","?C","130.0","Celsius"
"CC1=NN2C(S1)=NC(CCl)=CC2=O","-","EN300-10984","5711","7-(chloromethyl)-2-methyl-5H-[1,3,4]thiadiazolo[3,2-a]pyrimidin-5-one","-","A55638","25489863","-","-","210.0 - 212.0","?C","211.0","Celsius"
"CC1=C(C)C(C)=C(C(=O)CCl)C(C)=C1C","57196-63-1","EN300-10985","5712","2-chloro-1-(pentamethylphenyl)ethanone","-","A55638","25489863","-","-","70.0 - 72.0","?C","71.0","Celsius"