"SMILES","CASRN","EXTERNALID","N","NAME","NAME","ARTICLEID","PUBMEDID","PAGE","TABLE","Melting Point {measured}","UNIT {Melting Point}","Melting Point {measured, converted}","UNIT {Melting Point}"
"CC1=C(C)C(NC(S)=C(C#N)C2=NC3=C(S2)C=CC=C3)=CC=C1","-","EN300-03030","1158","2-Benzothiazol-2-yl-3-(2,3-dimethyl-phenylamino)-3-mercapto-acrylonitrile","-","A55638","25489863","-","-","94.0 - 98.0","?C","96.0","Celsius"
"CC1=C(NC2=NN=C(S)S2)C=CC=C1","27385-97-3","EN300-03034","1159","5-o-Tolylamino-[1,3,4]thiadiazole-2-thiol","-","A55638","25489863","-","-","230.0 - 232.0","?C","231.0","Celsius"
"CC1=C(C)C=C(NC2=NN=C(S)S2)C=C1","-","EN300-03035","1160","5-(3,4-Dimethyl-phenylamino)-[1,3,4]thiadiazole-2-thiol","-","A55638","25489863","-","-","181.0 - 183.0","?C","182.0","Celsius"
"SC1=NC2=C(C=CC=C2)N1C1=CC=CC=C1","4493-32-7","EN300-03046","1162","1-Phenyl-1H-benzoimidazole-2-thiol","-","A55638","25489863","-","-","140.0 - 145.0","?C","142.0","Celsius"
"CC1=C(C=CC=C1)N1C(S)=NC2=C(C=CC=C2)C1=O","37641-48-8","EN300-03051","1163","2-Mercapto-3-o-tolyl-3H-quinazolin-4-one","-","A55638","25489863","-","-","96.0 - 97.0","?C","96.5","Celsius"
"FC1=C(NC2=NN=C(S)S2)C=CC=C1","73310-96-0","EN300-03052","1164","5-(2-Fluoro-phenylamino)-[1,3,4]thiadiazole-2-thiol","-","A55638","25489863","-","-","170.0 - 172.0","?C","171.0","Celsius"
"CC1=CC=C(NC2=NN=C(S)S2)C=C1","14731-25-0","EN300-03056","1165","5-p-Tolylamino-[1,3,4]thiadiazole-2-thiol","-","A55638","25489863","-","-","219.0 - 221.0","?C","220.0","Celsius"
"CC1=C(C=CC=C1Cl)N1C(S)=NN=C1C1=CC=NC=C1","-","EN300-03059","1166","4-(3-Chloro-2-methyl-phenyl)-5-pyridin-4-yl-4H-[1,2,4]triazole-3-thiol","-","A55638","25489863","-","-","322.0 - 324.0","?C","323.0","Celsius"
"SC1=NC2=C(N=N1)C1=C(N2)C=CC=C1","28668-95-3","EN300-03063","1167","9H-1,3,4,9-Tetraaza-fluorene-2-thiol","-","A55638","25489863","-","-","85.0 - 90.0","?C","87.5","Celsius"
"CCC1=NN=C(S)N1N","20939-16-6","EN300-03073","1168","4-Amino-5-ethyl-4H-[1,2,4]triazole-3-thiol","-","A55638","25489863","-","-","143.0 - 145.0","?C","144.0","Celsius"
"COC1=CC2=C(C=C1)N=C(C)C=C2O","15644-90-3","EN300-03089","1169","6-Methoxy-2-methyl-quinolin-4-ol","-","A55638","25489863","-","-","284.0 - 286.0","?C","285.0","Celsius"
"CCOC(=O)C1=C(OC2=C1C=C(O)C=C2)C1=CC=CC=C1","4610-75-7","EN300-03091","1170","5-Hydroxy-2-phenyl-benzofuran-3-carboxylic acid ethyl ester","-","A55638","25489863","-","-","152.0 - 154.0","?C","153.0","Celsius"
"COC1=CC=C(NS(=O)(=O)C2=CC3=C(OC(S)=N3)C=C2)C=C1","-","EN300-03097","1172","2-Mercapto-benzooxazole-5-sulfonic acid (4-methoxy-phenyl)-amide","-","A55638","25489863","-","-","175.0 - 177.0","?C","176.0","Celsius"
"COC1=C(NS(=O)(=O)C2=CC3=C(OC(S)=N3)C=C2)C=CC=C1","-","EN300-03098","1173","2-Mercapto-benzooxazole-5-sulfonic acid (2-methoxy-phenyl)-amide","-","A55638","25489863","-","-","109.0 - 113.0","?C","111.0","Celsius"
"NN1C(S)=NN=C1C1CC1","31821-73-5","EN300-03100","1174","4-Amino-5-cyclopropyl-4H-[1,2,4]triazole-3-thiol","-","A55638","25489863","-","-","174.0 - 175.0","?C","174.0","Celsius"
"CC1=NN=C(S)N1N","20939-15-5","EN300-03102","1175","4-Amino-5-methyl-4H-[1,2,4]triazole-3-thiol","-","A55638","25489863","-","-","186.0 - 188.0","?C","187.0","Celsius"
"SC1=C2C=CC=CC2=NC=N1","3337-86-8","EN300-03105","1176","quinazoline-4-thiol","-","A55638","25489863","-","-","293.0 - 295.0","?C","294.0","Celsius"
"SC1=NN=C(NCC2=CC=CC=C2)S1","14731-27-2","EN300-03106","1177","5-Benzylamino-[1,3,4]thiadiazole-2-thiol","-","A55638","25489863","-","-","146.0 - 148.0","?C","147.0","Celsius"
"CC1=C(C=CC=C1)N1C(S)=NN=C1C1=CN=CC=C1","-","EN300-03115","1179","5-Pyridin-3-yl-4-o-tolyl-4H-[1,2,4]triazole-3-thiol","-","A55638","25489863","-","-","94.0 - 96.0","?C","95.0","Celsius"
"CCOC(=O)C1=CC2=C(C=C1)N(CC)C(S)=N2","-","EN300-03116","1180","1-Ethyl-2-mercapto-1H-benzoimidazole-5-carboxylic acid ethyl ester","-","A55638","25489863","-","-","152.0 - 154.0","?C","153.0","Celsius"
"SC1=NN=C(NC2=CC=C(OC3=CC=CC=C3)C=C2)S1","-","EN300-03122","1181","5-(4-Phenoxy-phenylamino)-[1,3,4]thiadiazole-2-thiol","-","A55638","25489863","-","-","183.0 - 185.0","?C","184.0","Celsius"
"SC1=NN=C(N1C1=CC=CC=C1)C1=CC=CS1","57600-04-1","EN300-03126","1183","4-Phenyl-5-thiophen-2-yl-4H-[1,2,4]triazole-3-thiol","-","A55638","25489863","-","-","269.0 - 271.0","?C","270.0","Celsius"
"COC1=C(C=C(C)C=C1)N1N=NN=C1S","-","EN300-03131","1184","1-(2-Methoxy-5-methyl-phenyl)-1H-tetrazole-5-thiol","-","A55638","25489863","-","-","164.0 - 166.0","?C","165.0","Celsius"
"CCCCC1=CC=C(C=C1)N1N=NN=C1S","-","EN300-03136","1185","1-(4-Butyl-phenyl)-1H-tetrazole-5-thiol","-","A55638","25489863","-","-","88.0 - 92.0","?C","90.0","Celsius"
"SC1=NN=NN1C1=CC=C(Cl)C=C1","27143-76-6","EN300-03137","1186","1-(4-Chloro-phenyl)-1H-tetrazole-5-thiol","-","A55638","25489863","-","-","162.0 - 164.0","?C","163.0","Celsius"
"COC1=C(NC2=NN=C(S)S2)C=C(C)C=C1","-","EN300-03138","1187","5-(2-Methoxy-5-methyl-phenylamino)-[1,3,4]thiadiazole-2-thiol","-","A55638","25489863","-","-","210.0 - 212.0","?C","211.0","Celsius"
"SC1=NC2=C(C=CC=C2)C(=O)N1C1=CC=C(Cl)C=C1","1028-40-6","EN300-03147","1189","3-(4-Chloro-phenyl)-2-mercapto-3H-quinazolin-4-one","-","A55638","25489863","-","-","336.0 - 338.0","?C","337.0","Celsius"
"SC1=NC2=C(N1)C=CC(=C2)S(=O)(=O)N1CCOCC1","-","EN300-03152","1190","5-(Morpholine-4-sulfonyl)-1H-benzoimidazole-2-thiol","-","A55638","25489863","-","-","285.0 - 287.0","?C","286.0","Celsius"
"COC1=C(C=CC=C1)N1C=C(N=C1S)C1=C(Cl)C=C(Cl)C=C1","-","EN300-03157","1191","4-(2,4-Dichloro-phenyl)-1-(2-methoxy-phenyl)-1H-imidazole-2-thiol","-","A55638","25489863","-","-","244.0 - 246.0","?C","245.0","Celsius"
"SC1=NN=C(O1)C1=CC(=CC=C1)S(=O)(=O)N1CCCCC1","-","EN300-03160","1192","5-[3-(Piperidine-1-sulfonyl)-phenyl]-[1,3,4]oxadiazole-2-thiol","-","A55638","25489863","-","-","205.0 - 207.0","?C","206.0","Celsius"
"CN1C(S)=NC2=C(C3=C(CCCC3)S2)C1=O","38201-61-5","EN300-03162","1193","2-Mercapto-3-methyl-5,6,7,8-tetrahydro-3H-benzo[4,5]thieno[2,3-d]pyrimidin-4-one","-","A55638","25489863","-","-","304.0 - 306.0","?C","305.0","Celsius"
"SC1=NN=C(O1)C1=CC=C(Cl)C=C1","23766-28-1","EN300-03164","1194","5-(4-Chloro-phenyl)-[1,3,4]oxadiazole-2-thiol","-","A55638","25489863","-","-","88.0 - 90.0","?C","89.0","Celsius"
"SC1=NN=C(O1)C1=CC=NC=C1","15264-63-8","EN300-03170","1196","5-Pyridin-4-yl-[1,3,4]oxadiazole-2-thiol","-","A55638","25489863","-","-","270.0 - 275.0","?C","272.0","Celsius"
"FC1=CC=C(C=C1)C1=NN=C(S)O1","41421-13-0","EN300-03171","1197","5-(4-Fluoro-phenyl)-[1,3,4]oxadiazole-2-thiol","-","A55638","25489863","-","-","204.0 - 206.0","?C","205.0","Celsius"
"CCN(CC)S(=O)(=O)C1=CC(=CC=C1)C1=NN=C(S)O1","-","EN300-03173","1198","N,N-Diethyl-3-(5-mercapto-[1,3,4]oxadiazol-2-yl)-benzenesulfonamide","-","A55638","25489863","-","-","95.0 - 101.0","?C","98.0","Celsius"
"COC1=CC(=CC(OC)=C1OC)C1=NN=C(S)O1","23269-92-3","EN300-03174","1199","5-(3,4,5-Trimethoxy-phenyl)-[1,3,4]oxadiazole-2-thiol","-","A55638","25489863","-","-","97.0 - 99.0","?C","98.0","Celsius"
"SC1=NN=C(O1)C1=CC2=C(OCO2)C=C1","63698-52-2","EN300-03175","1200","5-Benzo[1,3]dioxol-5-yl-[1,3,4]oxadiazole-2-thiol","-","A55638","25489863","-","-","179.0 - 181.0","?C","180.0","Celsius"
"SC1=NN=C(O1)C1CC1","-","EN300-03176","1201","5-Cyclopropyl-[1,3,4]oxadiazole-2-thiol","-","A55638","25489863","-","-","131.0 - 133.0","?C","132.0","Celsius"
"SC1=NN=C(O1)C1COC2=C(O1)C=CC=C2","120423-45-2","EN300-03177","1202","5-(2,3-Dihydro-benzo[1,4]dioxin-2-yl)-[1,3,4]oxadiazole-2-thiol","-","A55638","25489863","-","-","151.0 - 155.0","?C","153.0","Celsius"
"SC1=NN=C(O1)C1=C(Cl)C2=C(S1)C=CC=C2","-","EN300-03178","1203","5-(3-Chloro-benzo[b]thiophen-2-yl)-[1,3,4]oxadiazole-2-thiol","-","A55638","25489863","-","-","231.0 - 233.0","?C","232.0","Celsius"
"COC1=C(OC)C=C(C=C1)C1=NN=C(S)O1","-","EN300-03179","1204","5-(3,4-Dimethoxy-phenyl)-[1,3,4]oxadiazole-2-thiol","-","A55638","25489863","-","-","251.0 - 253.0","?C","252.0","Celsius"
"SC1=NN=C(O1)C1=CC=CO1","13239-11-7","EN300-03201","1205","5-Furan-2-yl-[1,3,4]oxadiazole-2-thiol","-","A55638","25489863","-","-","173.0 - 175.0","?C","174.0","Celsius"
"CCN1C(S)=NN=C1C1=CC=NC=C1","26029-01-6","EN300-03203","1206","4-Ethyl-5-pyridin-4-yl-4H-[1,2,4]triazole-3-thiol","-","A55638","25489863","-","-","140.0 - 142.0","?C","141.0","Celsius"
"CCN1C(S)=NN=C1C1=CC=C(Cl)C=C1","26131-64-6","EN300-03204","1207","5-(4-Chloro-phenyl)-4-ethyl-4H-[1,2,4]triazole-3-thiol","-","A55638","25489863","-","-","211.0 - 213.0","?C","212.0","Celsius"
"SC1=NN=C(O1)C1=CNC2=C1C=CC=C2","-","EN300-03212","1208","5-(1H-Indol-3-yl)-[1,3,4]oxadiazole-2-thiol","-","A55638","25489863","-","-","218.0 - 225.0","?C","222.0","Celsius"
"OC1=C(C=CC=C1)C1=NN=C2CCCCCN12","108877-44-7","EN300-03216","1210","2-(6,7,8,9-Tetrahydro-5H-[1,2,4]triazolo[4,3-a]azepin-3-yl)-phenol","-","A55638","25489863","-","-","271.0 - 273.0","?C","272.0","Celsius"
"OC1=CC2=C(C=C1)C(=O)C(=CO2)C1=CC=CC=C1","13057-72-2","EN300-03235","1211","7-Hydroxy-3-phenyl-chromen-4-one","-","A55638","25489863","-","-","201.0 - 203.0","?C","202.0","Celsius"
"COC1=CC=C(C=C1)C1=C(C)OC2=C(C=CC(O)=C2)C1=O","13004-42-7","EN300-03241","1212","7-hydroxy-3-(4-methoxyphenyl)-2-methyl-4H-chromen-4-one","-","A55638","25489863","-","-","282.0 - 284.0","?C","283.0","Celsius"
"CC1=C(C(=O)C2=C(O1)C=C(O)C=C2)C1=C(Cl)C=CC=C1","-","EN300-03244","1213","3-(2-Chloro-phenyl)-7-hydroxy-2-methyl-chromen-4-one","-","A55638","25489863","-","-","182.0 - 184.0","?C","183.0","Celsius"
"[O-][N+](=O)C1=CC2=C(C=C1)N=C(S)O2","14541-93-6","EN300-03267","1215","6-Nitro-benzooxazole-2-thiol","-","A55638","25489863","-","-","192.0 - 194.0","?C","193.0","Celsius"
"COC1=C(NC2=NN=C(S)S2)C=CC=C1","52494-33-4","EN300-03268","1216","5-(2-Methoxy-phenylamino)-[1,3,4]thiadiazole-2-thiol","-","A55638","25489863","-","-","182.0 - 184.0","?C","183.0","Celsius"
"CCOC1=C(C=CC=C1)N1N=NN=C1S","-","EN300-03275","1217","1-(2-Ethoxy-phenyl)-1H-tetrazole-5-thiol","-","A55638","25489863","-","-","53.0 - 55.0","?C","54.0","Celsius"
"CC1=C(C=CC=C1)N1C(S)=NN=C1C1=CC=NC=C1","16629-41-7","EN300-03277","1218","5-Pyridin-4-yl-4-o-tolyl-4H-[1,2,4]triazole-3-thiol","-","A55638","25489863","-","-","280.0 - 282.0","?C","281.0","Celsius"
"CCOC1=CC=C(NC2=NN=C(S)S2)C=C1","68161-60-4","EN300-03280","1219","5-(4-Ethoxy-phenylamino)-[1,3,4]thiadiazole-2-thiol","-","A55638","25489863","-","-","170.0 - 172.0","?C","171.0","Celsius"
"SC1=NN=C(N1)C1=CC=CS1","-","EN300-03289","1220","5-Thiophen-2-yl-4H-[1,2,4]triazole-3-thiol","-","A55638","25489863","-","-","239.0 - 241.0","?C","240.0","Celsius"
"SC1=NC2=C(O1)C=CC(=C2)S(=O)(=O)NC1=CC(Cl)=CC=C1","-","EN300-03295","1221","2-Mercapto-benzooxazole-5-sulfonic acid (3-chloro-phenyl)-amide","-","A55638","25489863","-","-","173.0 - 175.0","?C","174.0","Celsius"
"SC1=NN=C(N1CC1CCCO1)C1=CC=CS1","-","EN300-03298","1223","4-(Tetrahydro-furan-2-ylmethyl)-5-thiophen-2-yl-4H-[1,2,4]triazole-3-thiol","-","A55638","25489863","-","-","107.0 - 108.0","?C","108.0","Celsius"
"COC1=CC=C(C=C1)C1=NN=C(S)N1CC1CCCO1","-","EN300-03299","1224","5-(4-Methoxy-phenyl)-4-(tetrahydro-furan-2-ylmethyl)-4H-[1,2,4]triazole-3-thiol","-","A55638","25489863","-","-","107.0 - 108.0","?C","108.0","Celsius"
"CC1=NN=C(S)N1C1=CC=C(C)C=C1","-","EN300-03302","1225","5-Methyl-4-p-tolyl-4H-[1,2,4]triazole-3-thiol","-","A55638","25489863","-","-","98.0 - 100.0","?C","99.0","Celsius"
"CCNC1=NC2=NN=C(S)N2C(NCC)=N1","-","EN300-03305","1226","5,7-Bis-ethylamino-[1,2,4]triazolo[4,3-a][1,3,5]triazine-3-thiol","-","A55638","25489863","-","-","98.0 - 100.0","?C","99.0","Celsius"
"CC1=CC=C(C=C1)N1N=NN=C1S","13980-77-3","EN300-03312","1227","1-p-Tolyl-1H-tetrazole-5-thiol","-","A55638","25489863","-","-","112.0 - 114.0","?C","113.0","Celsius"
"COC1=CC=C(C=C1)N1C(S)=NC2=C1C=CC=C2","26495-07-8","EN300-03316","1228","1-(4-Methoxy-phenyl)-1H-benzoimidazole-2-thiol","-","A55638","25489863","-","-","213.0 - 215.0","?C","214.0","Celsius"
"NN1C(S)=NN=C1C1=CN=CC=C1","78027-00-6","EN300-03318","1229","4-Amino-5-pyridin-3-yl-4H-[1,2,4]triazole-3-thiol","-","A55638","25489863","-","-","190.0 - 192.0","?C","191.0","Celsius"
"CC1=CC(NC2=NN=C(S)S2)=CC=C1","52494-32-3","EN300-03325","1230","5-m-Tolylamino-[1,3,4]thiadiazole-2-thiol","-","A55638","25489863","-","-","196.0 - 198.0","?C","197.0","Celsius"
"SC1=NC(=N)SS1","-","EN300-03326","1231","5-Imino-5H-[1,2,4]dithiazole-3-thiol","-","A55638","25489863","-","-","192.0 - 196.0","?C","194.0","Celsius"
"COC1=CC=C(NC2=NN=C(S)S2)C=C1","37844-24-9","EN300-03330","1232","5-(4-Methoxy-phenylamino)-[1,3,4]thiadiazole-2-thiol","-","A55638","25489863","-","-","184.0 - 186.0","?C","185.0","Celsius"
"COC1=CC=C(C=C1)N1C(S)=NC2=C(C3=C(CCCC3)S2)C1=O","65234-02-8","EN300-03336","1233","2-Mercapto-3-(4-methoxy-phenyl)-5,6,7,8-tetrahydro-3H-benzo[4,5]thieno[2,3-d]pyrimidin-4-one","-","A55638","25489863","-","-","312.0 - 314.0","?C","313.0","Celsius"
"SC1=NC2=C(C=CC=C2)N1CCC1=CC=CC=C1","-","EN300-03359","1234","1-Phenethyl-1H-benzoimidazole-2-thiol","-","A55638","25489863","-","-","177.0 - 179.0","?C","178.0","Celsius"
"SC1=C(C#N)C2=C(CCCC2)C(CCC2=CC=CC=C2)=N1","-","EN300-03366","1235","3-Mercapto-1-phenethyl-5,6,7,8-tetrahydro-isoquinoline-4-carbonitrile","-","A55638","25489863","-","-","224.0 - 226.0","?C","225.0","Celsius"
"SC1=NN=C(N1CC1CCCO1)C1=CNC2=C1C=CC=C2","-","EN300-03373","1236","5-(1H-Indol-3-yl)-4-(tetrahydro-furan-2-ylmethyl)-4H-[1,2,4]triazole-3-thiol","-","A55638","25489863","-","-","251.0 - 253.0","?C","252.0","Celsius"
"FC(F)(F)OC1=CC=C(C=C1)N1C(S)=NN=C1C1=CC(=CC=C1)S(=O)(=O)N1CCOCC1","-","EN300-03382","1238","5-[3-(Morpholine-4-sulfonyl)-phenyl]-4-(4-trifluoromethoxy-phenyl)-4H-[1,2,4]triazole-3-thiol","-","A55638","25489863","-","-","247.0 - 249.0","?C","248.0","Celsius"
"CC1=CC=CC(C)=C1NC1=NN=C(S)S1","-","EN300-03396","1239","5-(2,6-Dimethyl-phenylamino)-[1,3,4]thiadiazole-2-thiol","-","A55638","25489863","-","-","266.0 - 268.0","?C","267.0","Celsius"
"NN1C(S)=NN=C1COC1=CC=CC=C1","4461-15-8","EN300-03397","1240","4-Amino-5-phenoxymethyl-4H-[1,2,4]triazole-3-thiol","-","A55638","25489863","-","-","163.0 - 167.0","?C","165.0","Celsius"
"SC1=NN=C(NC2CCCCC2)S1","68161-70-6","EN300-03406","1241","5-Cyclohexylamino-[1,3,4]thiadiazole-2-thiol","-","A55638","25489863","-","-","144.0 - 146.0","?C","145.0","Celsius"
"CC1=CC(C)=C(NC2=NN=C(S)S2)C=C1","-","EN300-03418","1242","5-(2,4-Dimethyl-phenylamino)-[1,3,4]thiadiazole-2-thiol","-","A55638","25489863","-","-","172.0 - 174.0","?C","173.0","Celsius"
"CC1=CC(N2N=NN=C2S)=C(C)C=C1","-","EN300-03427","1243","1-(2,5-Dimethyl-phenyl)-1H-tetrazole-5-thiol","-","A55638","25489863","-","-","129.0 - 131.0","?C","130.0","Celsius"
"SC1=NN=C2N1C1=C(C=CC=C1)C(=O)N2CC=C","-","EN300-03440","1244","4-Allyl-1-mercapto-4H-[1,2,4]triazolo[4,3-a]quinazolin-5-one","-","A55638","25489863","-","-","177.0 - 179.0","?C","178.0","Celsius"
"CC1=C(C=CC=C1)N1N=NN=C1S","53662-42-3","EN300-03443","1245","1-o-Tolyl-1H-tetrazole-5-thiol","-","A55638","25489863","-","-","65.0 - 67.0","?C","66.0","Celsius"
"CC1CCCCC1NC1=NN=C(S)S1","-","EN300-03447","1246","5-(2-Methyl-cyclohexylamino)-[1,3,4]thiadiazole-2-thiol","-","A55638","25489863","-","-","133.0 - 135.0","?C","134.0","Celsius"
"COC1=C(C=CC=C1)C1=NN=C(S)N1CCC1=CC=CC=C1","-","EN300-03449","1247","5-(2-Methoxy-phenyl)-4-phenethyl-4H-[1,2,4]triazole-3-thiol","-","A55638","25489863","-","-","87.0 - 89.0","?C","88.0","Celsius"
"SC1=NC(C2=CC=CC=C2)=C(C#N)C(=O)N1","-","EN300-03450","1248","2-Mercapto-6-oxo-4-phenyl-1,6-dihydro-pyrimidine-5-carbonitrile","-","A55638","25489863","-","-","327.0 - 329.0","?C","328.0","Celsius"
"CC(C)(C)C1=CC=C(C=C1)C1=NN=C(S)N1N","-","EN300-03452","1249","4-Amino-5-(4-tert-butyl-phenyl)-4H-[1,2,4]triazole-3-thiol","-","A55638","25489863","-","-","105.0 - 106.0","?C","106.0","Celsius"
"CC1=CC(C)=C(C=C1)N1N=NN=C1S","-","EN300-03457","1250","1-(2,4-Dimethyl-phenyl)-1H-tetrazole-5-thiol","-","A55638","25489863","-","-","110.0 - 112.0","?C","111.0","Celsius"
"COC1=C(C=CC=C1)C1=NN=C(S)N1N","61019-26-9","EN300-03462","1251","4-Amino-5-(2-methoxy-phenyl)-4H-[1,2,4]triazole-3-thiol","-","A55638","25489863","-","-","210.0 - 220.0","?C","215.0","Celsius"
"NC1=C(NCCCO)C(=O)NC(=O)N1CC1=CC=CC=C1","-","EN300-03465","1252","6-Amino-1-benzyl-5-(3-hydroxy-propylamino)-1H-pyrimidine-2,4-dione","-","A55638","25489863","-","-","155.0 - 157.0","?C","156.0","Celsius"
"CCCCC1=CC=C(NC2=NN=C(S)S2)C=C1","-","EN300-03470","1253","5-(4-Butyl-phenylamino)-[1,3,4]thiadiazole-2-thiol","-","A55638","25489863","-","-","124.0 - 126.0","?C","125.0","Celsius"
"OC(=O)C1=CC2=C(C=C1)C(=O)N(C(S)=N2)C1=CC=CC=C1","-","EN300-03472","1254","2-Mercapto-4-oxo-3-phenyl-3,4-dihydro-quinazoline-7-carboxylic acid","-","A55638","25489863","-","-","368.0 - 370.0","?C","369.0","Celsius"
"SC1=NC2=C(O1)C=CC(=C2)S(=O)(=O)N1CCOCC1","-","EN300-03485","1255","5-(Morpholine-4-sulfonyl)-benzooxazole-2-thiol","-","A55638","25489863","-","-","251.0 - 253.0","?C","252.0","Celsius"
"CC1CCC2=C(C1)SC1=C2C(=O)N(CC=C)C(S)=N1","307512-22-7","EN300-03493","1256","3-Allyl-2-mercapto-7-methyl-5,6,7,8-tetrahydro-3H-benzo[4,5]thieno[2,3-d]pyrimidin-4-one","-","A55638","25489863","-","-","228.0 - 230.0","?C","229.0","Celsius"
"COC1=CC=C(C=C1)C1=NN=C(S)O1","23766-26-9","EN300-03495","1257","5-(4-Methoxy-phenyl)-[1,3,4]oxadiazole-2-thiol","-","A55638","25489863","-","-","202.0 - 204.0","?C","203.0","Celsius"
"SC1=NN=C(COC2=C(Cl)C=CC=C2)O1","58695-63-9","EN300-03496","1258","5-(2-Chloro-phenoxymethyl)-[1,3,4]oxadiazole-2-thiol","-","A55638","25489863","-","-","135.0 - 137.0","?C","136.0","Celsius"
"CCN1C(S)=NN=C1C1=CC=CS1","337473-17-3","EN300-03502","1259","4-Ethyl-5-thiophen-2-yl-4H-[1,2,4]triazole-3-thiol","-","A55638","25489863","-","-","103.0 - 105.0","?C","104.0","Celsius"
"CCC1=CC=C(OCC2=NN=C(S)N2CC2=CC=CC=C2)C=C1","-","EN300-03504","1260","4-Benzyl-5-(4-ethyl-phenoxymethyl)-4H-[1,2,4]triazole-3-thiol","-","A55638","25489863","-","-","137.0 - 139.0","?C","138.0","Celsius"
"NN1C(S)=NN=C1C1=C(Cl)C=C(Cl)C=C1","93677-89-5","EN300-03510","1261","4-Amino-5-(2,4-dichloro-phenyl)-4H-[1,2,4]triazole-3-thiol","-","A55638","25489863","-","-","90.0 - 92.0","?C","91.0","Celsius"
"NN1C(S)=NN=C1C1=C(Cl)C=CC=C1","13229-02-2","EN300-03520","1262","4-Amino-5-(2-chloro-phenyl)-4H-[1,2,4]triazole-3-thiol","-","A55638","25489863","-","-","110.0 - 113.0","?C","112.0","Celsius"
"CCN1C(S)=NC2=C1C=CC=C2","39573-31-4","EN300-03524","1263","1-Ethyl-1H-benzoimidazole-2-thiol","-","A55638","25489863","-","-","135.0 - 137.0","?C","136.0","Celsius"
"CN1C(S)=NC2=C1C=CC=C2","2360-22-7","EN300-03525","1264","1-Methyl-1H-benzoimidazole-2-thiol","-","A55638","25489863","-","-","190.0 - 194.0","?C","192.0","Celsius"
"SC1=NC2=C(C(=CS2)C2=CC=CO2)C(=O)N1C1=CC=CC=C1","-","EN300-03526","1265","5-Furan-2-yl-2-mercapto-3-phenyl-3H-thieno[2,3-d]pyrimidin-4-one","-","A55638","25489863","-","-","242.0 - 244.0","?C","243.0","Celsius"
"SC1=NN=C(N1C1=CC=CC=C1)C1=CC=CO1","27106-16-7","EN300-03527","1266","5-Furan-2-yl-4-phenyl-4H-[1,2,4]triazole-3-thiol","-","A55638","25489863","-","-","121.0 - 123.0","?C","122.0","Celsius"
"SC1=NN=C(N1C1=CC=CC=C1)C1=CC=NC=C1","16629-40-6","EN300-03528","1267","4-Phenyl-5-pyridin-4-yl-4H-[1,2,4]triazole-3-thiol","-","A55638","25489863","-","-","290.0 - 292.0","?C","291.0","Celsius"
"CN1C(S)=NN=C1C1=CC=NC=C1","3652-32-2","EN300-03529","1268","4-Methyl-5-pyridin-4-yl-4H-[1,2,4]triazole-3-thiol","-","A55638","25489863","-","-","121.0 - 123.0","?C","122.0","Celsius"
"COC1=CC=C(C=C1)C1=NN=C(S)N1C(C)C","-","EN300-03545","1270","4-Isopropyl-5-(4-methoxy-phenyl)-4H-[1,2,4]triazole-3-thiol","-","A55638","25489863","-","-","218.0 - 220.0","?C","219.0","Celsius"
"NNC1=C(C=C(C=C1)S(=O)(=O)NC1=CC=CC=C1)[N+]([O-])=O","-","EN300-03558","1275","4-Hydrazino-3-nitro-N-phenyl-benzenesulfonamide","-","A55638","25489863","-","-","207.0 - 209.0","?C","208.0","Celsius"