"SMILES","CASRN","EXTERNALID","N","NAME","NAME","ARTICLEID","PUBMEDID","PAGE","TABLE","Melting Point {measured}","UNIT {Melting Point}","Melting Point {measured, converted}","UNIT {Melting Point}"
"COC(=O)C1=C(C)N(C)C2=C1C=C(O)C=C2","-","EN300-100703","3662","methyl 5-hydroxy-1,2-dimethyl-1H-indole-3-carboxylate","-","A55638","25489863","-","-","223.0 - 225.0","?C","224.0","Celsius"
"NC(=S)CN1C=CC(=O)NC1=O","-","EN300-100704","3663","2-(2,4-dioxo-1,2,3,4-tetrahydropyrimidin-1-yl)ethanethioamide","-","A55638","25489863","-","-","256.0 - 258.0","?C","257.0","Celsius"
"CNS(=O)(=O)CC1CCCN1","-","EN300-100705","3664","N-methyl-1-pyrrolidin-2-ylmethanesulfonamide","-","A55638","25489863","-","-","91.0 - 93.0","?C","92.0","Celsius"
"ClC(C1=NC(=NO1)C1=CC=CC=C1)C1=CC=CC=C1","-","EN300-100714","3665","5-[chloro(phenyl)methyl]-3-phenyl-1,2,4-oxadiazole","-","A55638","25489863","-","-","74.0 - 76.0","?C","75.0","Celsius"
"CC(N)(C(N)=O)C1=CC(Cl)=CC=C1","-","EN300-100715","3666","2-amino-2-(3-chlorophenyl)propanamide","-","A55638","25489863","-","-","103.0 - 105.0","?C","104.0","Celsius"
"CCOC1=C(N)C=CC(=C1)C(=O)N(C)C","-","EN300-100719","3667","4-amino-3-ethoxy-N,N-dimethylbenzamide","-","A55638","25489863","-","-","107.0 - 109.0","?C","108.0","Celsius"
"CC1=NN(C(N)=C1C1=CC=CC=C1)C1=CC=CC=C1","58314-81-1","EN300-10072","3668","3-Methyl-1,4-diphenyl-1H-pyrazol-5-amine","-","A55638","25489863","-","-","82.0 - 84.0","?C","83.0","Celsius"
"CCCOC1=C(C=C(Cl)C=C1)C(O)=O","-","EN300-100720","3669","5-chloro-2-propoxybenzoic acid","-","A55638","25489863","-","-","59.0 - 61.0","?C","60.0","Celsius"
"CC(O)CC1=CC(Br)=CC(F)=C1","-","EN300-100725","3670","1-(3-bromo-5-fluorophenyl)propan-2-ol","-","A55638","25489863","-","-","39.0 - 41.0","?C","40.0","Celsius"
"CS(=O)(=O)C1=C(F)C(C(O)=O)=C(F)C=C1","-","EN300-100728","3671","2,6-difluoro-3-methanesulfonylbenzoic acid","-","A55638","25489863","-","-","175.0 - 177.0","?C","176.0","Celsius"
"COC1=CC(=CC(OC)=C1)C1=NN=C(S)N1N","750624-63-6","EN300-10074","3672","4-amino-5-(3,5-dimethoxyphenyl)-4H-1,2,4-triazole-3-thiol","-","A55638","25489863","-","-","178.0 - 180.0","?C","179.0","Celsius"
"OC(=O)C1=NNC=N1","-","EN300-100741","3673","1H-1,2,4-triazole-3-carboxylic acid","-","A55638","25489863","-","-","132.0 - 136.0","?C","134.0","Celsius"
"CC(=CC1=CC=C(F)C=C1)C(O)=O","-","EN300-100771","3676","3-(4-fluorophenyl)-2-methylprop-2-enoic acid","-","A55638","25489863","-","-","150.0 - 152.0","?C","151.0","Celsius"
"OCC1CN(CCC2=CC=CC=C2)C(=O)C1","-","EN300-100773","3677","4-(hydroxymethyl)-1-(2-phenylethyl)pyrrolidin-2-one","-","A55638","25489863","-","-","65.0 - 67.0","?C","66.0","Celsius"
"COC1=C(C=C(Br)C=C1)C(N)CO","-","EN300-100774","3678","2-amino-2-(5-bromo-2-methoxyphenyl)ethan-1-ol","-","A55638","25489863","-","-","99.0 - 101.0","?C","100.0","Celsius"
"NC(C(O)=O)C1=CC=CS1","-","EN300-100775","3679","2-amino-2-(thiophen-2-yl)acetic acid","-","A55638","25489863","-","-","208.0 - 210.0","?C","209.0","Celsius"
"CN(C1CCOCC1)C(=O)C1=CC=C(N)C=C1","-","EN300-100776","3680","4-amino-N-methyl-N-(oxan-4-yl)benzamide","-","A55638","25489863","-","-","170.0 - 172.0","?C","171.0","Celsius"
"COC1=NC(O)=C(F)C=N1","-","EN300-100777","3681","5-fluoro-2-methoxypyrimidin-4-ol","-","A55638","25489863","-","-","195.0 - 197.0","?C","196.0","Celsius"
"CN(C)S(=O)(=O)C1=CC2=C(C=C1)N=C(Cl)C(Cl)=N2","-","EN300-100779","3682","2,3-dichloro-N,N-dimethylquinoxaline-6-sulfonamide","-","A55638","25489863","-","-","139.0 - 141.0","?C","140.0","Celsius"
"COC1=CC(OC)=C(C=C1)N1CC(CC1=O)C(O)=O","-","EN300-10078","3683","1-(2,4-dimethoxyphenyl)-5-oxopyrrolidine-3-carboxylic acid","-","A55638","25489863","-","-","183.0 - 185.0","?C","184.0","Celsius"
"CCC(C)C(O)C(O)=O","-","EN300-100780","3684","2-hydroxy-3-methylpentanoic acid","-","A55638","25489863","-","-","45.0 - 47.0","?C","46.0","Celsius"
"NC1=CC2=C(C=C1)N=C(S2)N1C=CN=C1","-","EN300-100781","3685","2-(1H-imidazol-1-yl)-1,3-benzothiazol-6-amine","-","A55638","25489863","-","-","202.0 - 204.0","?C","203.0","Celsius"
"CC(O)CNC1=NC=NC(Cl)=C1","-","EN300-100793","3686","1-[(6-chloropyrimidin-4-yl)amino]propan-2-ol","-","A55638","25489863","-","-","101.0 - 103.0","?C","102.0","Celsius"
"CN(C)C(=O)C1=C(F)C=CC(N)=C1","-","EN300-100794","3687","5-amino-2-fluoro-N,N-dimethylbenzamide","-","A55638","25489863","-","-","104.0 - 106.0","?C","105.0","Celsius"
"OC(=O)C1=C(OC2CCCC2)C=CC(Cl)=C1","-","EN300-100795","3688","5-chloro-2-(cyclopentyloxy)benzoic acid","-","A55638","25489863","-","-","95.0 - 97.0","?C","96.0","Celsius"
"ClC1=NC=C(C=C1)N1C=CC=N1","-","EN300-100811","3690","2-chloro-5-(1H-pyrazol-1-yl)pyridine","-","A55638","25489863","-","-","107.0 - 109.0","?C","108.0","Celsius"
"CC(C)CC1=C(SC(C)=N1)C(O)=O","-","EN300-100814","3691","2-methyl-4-(2-methylpropyl)-1,3-thiazole-5-carboxylic acid","-","A55638","25489863","-","-","116.0 - 118.0","?C","117.0","Celsius"
"CS(=O)(=O)C1=CC(C(O)=O)=C(Cl)C=C1","89938-62-5","EN300-10082","3692","2-chloro-5-(methylsulfonyl)benzoic acid","-","A55638","25489863","-","-","183.0 - 185.0","?C","184.0","Celsius"
"BrC1=CC(=CC=C1)S(=O)(=O)C=C","-","EN300-100824","3693","1-bromo-3-(ethenesulfonyl)benzene","-","A55638","25489863","-","-","50.0 - 52.0","?C","51.0","Celsius"
"NC(=O)C1=CN=C(C=C1)C(F)(F)F","-","EN300-100828","3694","6-(trifluoromethyl)pyridine-3-carboxamide","-","A55638","25489863","-","-","185.0 - 187.0","?C","186.0","Celsius"
"CCS(=O)(=O)N(C)CC(O)=O","-","EN300-100830","3696","2-(N-methylethanesulfonamido)acetic acid","-","A55638","25489863","-","-","70.0 - 72.0","?C","71.0","Celsius"
"OC(=O)CC=CC1=CC(F)=CC=C1","-","EN300-100831","3697","4-(3-fluorophenyl)but-3-enoic acid","-","A55638","25489863","-","-","64.0 - 66.0","?C","65.0","Celsius"
"NC1CCCC2=C1C=CN2","-","EN300-100832","3698","4,5,6,7-tetrahydro-1H-indol-4-amine","-","A55638","25489863","-","-","83.0 - 85.0","?C","84.0","Celsius"
"OC(=O)CC(NC(=O)OCC1=CC=CC=C1)C1=CC=CC=C1","-","EN300-100834","3699","3-{[(benzyloxy)carbonyl]amino}-3-phenylpropanoic acid","-","A55638","25489863","-","-","124.0 - 126.0","?C","125.0","Celsius"
"CN(C)C(=O)C1=C(C)C=CC(N)=C1","-","EN300-100835","3700","5-amino-N,N,2-trimethylbenzamide","-","A55638","25489863","-","-","114.0 - 116.0","?C","115.0","Celsius"
"CC(=O)C1=NC2=C(C=CC=C2)C=C1","-","EN300-100843","3701","1-(quinolin-2-yl)ethan-1-one","-","A55638","25489863","-","-","47.0 - 49.0","?C","48.0","Celsius"
"COC(=O)CCCN1C(=O)NC(C)(C)C1=O","-","EN300-100853","3703","methyl 4-(4,4-dimethyl-2,5-dioxoimidazolidin-1-yl)butanoate","-","A55638","25489863","-","-","60.0 - 62.0","?C","61.0","Celsius"
"N#CCCNC1=CC2=C(OCCO2)C=C1","-","EN300-10086","3704","3-(2,3-dihydro-1,4-benzodioxin-6-ylamino)propanenitrile","-","A55638","25489863","-","-","83.0 - 85.0","?C","84.0","Celsius"
"CCC(OC1=C(C)C=CC=C1)C(O)=O","-","EN300-100861","3705","2-(2-methylphenoxy)butanoic acid","-","A55638","25489863","-","-","49.0 - 51.0","?C","50.0","Celsius"
"OC(=O)C1=CC(Cl)=C(I)C=C1","-","EN300-100862","3706","3-chloro-4-iodobenzoic acid","-","A55638","25489863","-","-","218.0 - 220.0","?C","219.0","Celsius"
"COC1=C(OC(C)C)C=CC(C=CC(O)=O)=C1","32022-22-3","EN300-10087","3708","(2E)-3-(4-isopropoxy-3-methoxyphenyl)acrylic acid","-","A55638","25489863","-","-","83.0 - 87.0","?C","85.0","Celsius"
"O=C1CCN(CCN1)C1CC1","-","EN300-100873","3709","1-cyclopropyl-1,4-diazepan-5-one","-","A55638","25489863","-","-","98.0 - 100.0","?C","99.0","Celsius"
"OC(=O)C1=C(OC(F)F)C=C(F)C=C1","-","EN300-100874","3710","2-(difluoromethoxy)-4-fluorobenzoic acid","-","A55638","25489863","-","-","115.0 - 117.0","?C","116.0","Celsius"
"OCNC(=O)C1=CC=C(Cl)C=C1","-","EN300-100875","3711","4-Chloro-N-(hydroxymethyl)benzamide","-","A55638","25489863","-","-","145.0 - 147.0","?C","146.0","Celsius"
"OC1CCC(CC1)NC(=O)C(F)(F)F","-","EN300-100880","3712","2,2,2-trifluoro-N-(4-hydroxycyclohexyl)acetamide","-","A55638","25489863","-","-","186.0 - 188.0","?C","187.0","Celsius"
"COC1=C(OC(C)C)C=CC(=C1)C#N","-","EN300-10090","3714","4-isopropoxy-3-methoxybenzonitrile","-","A55638","25489863","-","-","71.0 - 73.0","?C","72.0","Celsius"
"CC(Cl)C1=NC2=C(C=CC=C2)C(=O)N1","-","EN300-10091","3716","2-(1-chloroethyl)quinazolin-4(3H)-one","-","A55638","25489863","-","-","250.0 - 252.0","?C","251.0","Celsius"
"OC(=O)CN1N=CC=N1","-","EN300-100916","3717","2-(2H-1,2,3-triazol-2-yl)acetic acid","-","A55638","25489863","-","-","129.0 - 131.0","?C","130.0","Celsius"
"CC1=C(C(O)=O)C(=O)OC2=C1C=CC=C2","-","EN300-100917","3718","4-methyl-2-oxo-2H-chromene-3-carboxylic acid","-","A55638","25489863","-","-","163.0 - 165.0","?C","164.0","Celsius"
"O=C1NC2=C(C=CC=C2)S(=O)(=O)N1","-","EN300-100926","3719","2H-1,2,4-benzothiadiazin-3(4H)-one 1,1-dioxide","-","A55638","25489863","-","-","301.0 - 303.0","?C","302.0","Celsius"
"NC1=C(NC2CC2)N=CN=C1Cl","-","EN300-100928","3720","6-chloro-4-N-cyclopropylpyrimidine-4,5-diamine","-","A55638","25489863","-","-","139.0 - 141.0","?C","140.0","Celsius"
"CCC1=NC2=C(C=CC=C2)N1CC(O)=O","54980-96-0","EN300-10093","3721","(2-ethyl-1H-benzimidazol-1-yl)acetic acid","-","A55638","25489863","-","-","232.0 - 234.0","?C","233.0","Celsius"
"CC1=CC=C(C=C1)C(C)(C)CC(O)=O","42288-08-4","EN300-10094","3722","3-methyl-3-(4-methylphenyl)butanoic acid","-","A55638","25489863","-","-","50.0 - 57.0","?C","53.5","Celsius"
"NS(=O)(=O)C1=CN=C(C=C1)[N+]([O-])=O","-","EN300-100949","3724","6-nitropyridine-3-sulfonamide","-","A55638","25489863","-","-","174.0 - 176.0","?C","175.0","Celsius"
"O=C(NCC1=CNN=C1)OCC1=CC=CC=C1","-","EN300-100955","3725","benzyl N-(1H-pyrazol-4-ylmethyl)carbamate","-","A55638","25489863","-","-","126.0 - 128.0","?C","127.0","Celsius"
"CC(C)(C)OC(=O)NC1=C(N)C=C2OCOC2=C1","-","EN300-100957","3727","tert-butyl N-(6-amino-2H-1,3-benzodioxol-5-yl)carbamate","-","A55638","25489863","-","-","93.0 - 95.0","?C","94.0","Celsius"
"CSC1=C(N)C=NC=C1","-","EN300-100961","3729","4-(methylsulfanyl)pyridin-3-amine","-","A55638","25489863","-","-","78.0 - 80.0","?C","79.0","Celsius"
"COC1=C(Cl)C=C(C(Br)=C1)S(Cl)(=O)=O","-","EN300-100971","3731","2-bromo-5-chloro-4-methoxybenzene-1-sulfonyl chloride","-","A55638","25489863","-","-","89.0 - 91.0","?C","90.0","Celsius"
"COCCN(C)S(N)(=O)=O","-","EN300-100980","3732","[(2-methoxyethyl)(methyl)sulfamoyl]amine","-","A55638","25489863","-","-","34.0 - 36.0","?C","35.0","Celsius"
"CC1=CC=C(CC(O)=O)O1","-","EN300-101015","3733","2-(5-methylfuran-2-yl)acetic acid","-","A55638","25489863","-","-","56.0 - 58.0","?C","57.0","Celsius"
"CC1=CC=C(C=C1)C1=NN(C=C1C(O)=O)C1=CC=C(F)C=C1","-","EN300-10102","3734","1-(4-fluorophenyl)-3-(4-methylphenyl)-1H-pyrazole-4-carboxylic acid","-","A55638","25489863","-","-","212.0 - 214.0","?C","213.0","Celsius"
"COC1=C(CN2C=CC=N2)C=C(C=C1)C(C)=O","-","EN300-101028","3735","1-[4-methoxy-3-(1H-pyrazol-1-ylmethyl)phenyl]ethan-1-one","-","A55638","25489863","-","-","80.0 - 82.0","?C","81.0","Celsius"
"NC1=C(CO)N=CC=N1","-","EN300-101029","3736","(3-aminopyrazin-2-yl)methanol","-","A55638","25489863","-","-","115.0 - 117.0","?C","116.0","Celsius"
"OC(=O)CC=CC1=C(F)C=CC=C1","-","EN300-101030","3737","4-(2-fluorophenyl)but-3-enoic acid","-","A55638","25489863","-","-","54.0 - 56.0","?C","55.0","Celsius"
"COC1=CC=C(C=C1)C(C)CC(O)=O","-","EN300-101031","3738","3-(4-methoxyphenyl)butanoic acid","-","A55638","25489863","-","-","66.0 - 68.0","?C","67.0","Celsius"
"ClC1=CC(=CC=C1)N1CCC(Br)C1=O","-","EN300-101033","3740","3-bromo-1-(3-chlorophenyl)pyrrolidin-2-one","-","A55638","25489863","-","-","89.0 - 91.0","?C","90.0","Celsius"
"CCOC(=O)C1=CC2=C(NC(C)C(=O)N2)C=C1","-","EN300-101047","3742","ethyl 2-methyl-3-oxo-1,2,3,4-tetrahydroquinoxaline-6-carboxylate","-","A55638","25489863","-","-","181.0 - 183.0","?C","182.0","Celsius"
"CCCC(NC(=O)C1=CC=CC=C1)C#N","-","EN300-101062","3743","N-(1-cyanobutyl)benzamide","-","A55638","25489863","-","-","89.0 - 91.0","?C","90.0","Celsius"
"CC1=C(C=CC=C1)C1=NON=C1N","-","EN300-101063","3744","4-(2-methylphenyl)-1,2,5-oxadiazol-3-amine","-","A55638","25489863","-","-","88.0 - 90.0","?C","89.0","Celsius"
"CC1=C(N)ON=C1C1=CN=CC=C1","-","EN300-101064","3745","4-methyl-3-(pyridin-3-yl)-1,2-oxazol-5-amine","-","A55638","25489863","-","-","177.0 - 179.0","?C","178.0","Celsius"
"NC1=NON=C1C1=CC=C(Br)C=C1","-","EN300-101065","3746","4-(4-bromophenyl)-1,2,5-oxadiazol-3-amine","-","A55638","25489863","-","-","141.0 - 143.0","?C","142.0","Celsius"
"NC(=O)C1=C(OCCC(O)=O)C=CC=C1","-","EN300-101066","3747","3-(2-carbamoylphenoxy)propanoic acid","-","A55638","25489863","-","-","174.0 - 176.0","?C","175.0","Celsius"
"NC1=NON=C1C1=CC(Cl)=CC=C1","-","EN300-101067","3748","4-(3-chlorophenyl)-1,2,5-oxadiazol-3-amine","-","A55638","25489863","-","-","133.0 - 135.0","?C","134.0","Celsius"
"CC1=C(F)C=CC(=C1)C(=O)CCl","-","EN300-101068","3749","2-chloro-1-(4-fluoro-3-methylphenyl)ethan-1-one","-","A55638","25489863","-","-","33.0 - 35.0","?C","34.0","Celsius"
"COC(C)C(N)=S","-","EN300-101069","3750","2-methoxypropanethioamide","-","A55638","25489863","-","-","58.0 - 60.0","?C","59.0","Celsius"
"NC1=NON=C1C1=C(Cl)C=C(Cl)C=C1","-","EN300-101072","3751","4-(2,4-dichlorophenyl)-1,2,5-oxadiazol-3-amine","-","A55638","25489863","-","-","105.0 - 107.0","?C","106.0","Celsius"
"CC(=O)NCCC1=C(F)C=CC(=C1)C(=O)CCl","-","EN300-101073","3752","N-{2-[5-(2-chloroacetyl)-2-fluorophenyl]ethyl}acetamide","-","A55638","25489863","-","-","97.0 - 99.0","?C","98.0","Celsius"
"CC1=CC(=CC=C1)C1=NON=C1N","-","EN300-101074","3753","4-(3-methylphenyl)-1,2,5-oxadiazol-3-amine","-","A55638","25489863","-","-","77.0 - 79.0","?C","78.0","Celsius"
"COC(C)C1=NC(=CS1)C(O)=O","-","EN300-101077","3755","2-(1-methoxyethyl)-1,3-thiazole-4-carboxylic acid","-","A55638","25489863","-","-","73.0 - 75.0","?C","74.0","Celsius"
"CC1=CC(=CC=C1)C1=NN(C=C1C(O)=O)C1=CC=CC=C1","-","EN300-10108","3756","3-(3-methylphenyl)-1-phenyl-1H-pyrazole-4-carboxylic acid","-","A55638","25489863","-","-","146.0 - 148.0","?C","147.0","Celsius"
"CC(O)CC1=CC(F)=C(Br)C=C1","-","EN300-101089","3757","1-(4-bromo-3-fluorophenyl)propan-2-ol","-","A55638","25489863","-","-","36.0 - 38.0","?C","37.0","Celsius"
"OC(=O)CN1C(=O)C2=C(C=C(C=C2)[N+]([O-])=O)C1=O","10133-88-7","EN300-10109","3758","(5-nitro-1,3-dioxo-1,3-dihydro-2H-isoindol-2-yl)acetic acid","-","A55638","25489863","-","-","197.0 - 199.0","?C","198.0","Celsius"
"NC(=O)CCC(NS(=O)(=O)C1=CC(=CC=C1)C(F)(F)F)C(O)=O","-","EN300-10110","3759","5-amino-5-oxo-2-({[3-(trifluoromethyl)phenyl]sulfonyl}amino)pentanoic acid","-","A55638","25489863","-","-","164.0 - 166.0","?C","165.0","Celsius"
"O=S1(=O)CC(SCC2=CC=CC=C2)C2=C1C=CC=C2","-","EN300-101113","3761","3-(benzylsulfanyl)-2,3-dihydro-1$l^{6}-benzothiophene-1,1-dione","-","A55638","25489863","-","-","72.0 - 74.0","?C","73.0","Celsius"
"COCCCOC1=CC=C(C=C1)C(O)=O","-","EN300-101117","3762","4-(3-methoxypropoxy)benzoic acid","-","A55638","25489863","-","-","112.0 - 114.0","?C","113.0","Celsius"
"NC1=NC=C(N=C1)C#N","-","EN300-101119","3763","5-aminopyrazine-2-carbonitrile","-","A55638","25489863","-","-","186.0 - 188.0","?C","187.0","Celsius"
"CC1=NC(N)=C(Br)C=N1","-","EN300-101120","3764","5-bromo-2-methylpyrimidin-4-amine","-","A55638","25489863","-","-","109.0 - 111.0","?C","110.0","Celsius"
"OC(=O)C1(Br)CCCC1","-","EN300-101126","3765","1-bromocyclopentane-1-carboxylic acid","-","A55638","25489863","-","-","66.0 - 68.0","?C","67.0","Celsius"
"SC1=NN=C(NCC=C)S1","-","EN300-10113","3768","5-(allylamino)-1,3,4-thiadiazole-2-thiol","-","A55638","25489863","-","-","133.0 - 135.0","?C","134.0","Celsius"
"NC1=NC(CN2CCOCC2)=CS1","3008-61-5","EN300-10114","3773","4-(morpholin-4-ylmethyl)-1,3-thiazol-2-amine","-","A55638","25489863","-","-","145.0 - 150.0","?C","148.0","Celsius"
"CC(=O)C1=CC=C(C=C1)S(=O)(=O)NCCCC(O)=O","-","EN300-10117","3774","4-{[(4-acetylphenyl)sulfonyl]amino}butanoic acid","-","A55638","25489863","-","-","140.0 - 142.0","?C","141.0","Celsius"
"OC(=O)CC(Br)C(=O)C1=CC=C(Br)C=C1","-","EN300-101177","3775","3-bromo-4-(4-bromophenyl)-4-oxobutanoic acid","-","A55638","25489863","-","-","109.0 - 111.0","?C","110.0","Celsius"
"BrC1=CN2C=CN=C2C(Br)=N1","-","EN300-101186","3776","6,8-dibromoimidazo[1,2-a]pyrazine","-","A55638","25489863","-","-","152.0 - 154.0","?C","153.0","Celsius"
"OC(=O)C1=CN(C(=O)C=C1)C1=CC(Br)=CC=C1","-","EN300-101187","3777","1-(3-bromophenyl)-6-oxo-1,6-dihydropyridine-3-carboxylic acid","-","A55638","25489863","-","-","279.0 - 281.0","?C","280.0","Celsius"
"CNC1=NC=C(I)C=N1","-","EN300-101190","3779","5-iodo-N-methylpyrimidin-2-amine","-","A55638","25489863","-","-","134.0 - 136.0","?C","135.0","Celsius"
"OC(=O)C1=CNN=C1C1=CC(Cl)=C(F)C=C1","-","EN300-101192","3780","3-(3-chloro-4-fluorophenyl)-1H-pyrazole-4-carboxylic acid","-","A55638","25489863","-","-","282.0 - 284.0","?C","283.0","Celsius"
"COC(=O)C1=CC=C(CNC2=CC3=NNC=C3C=C2)C=C1","-","EN300-101193","3781","methyl 4-[(2H-indazol-6-ylamino)methyl]benzoate","-","A55638","25489863","-","-","152.0 - 154.0","?C","153.0","Celsius"
"CC1=NC=NC(NCC2=CC=CO2)=C1","-","EN300-101196","3782","N-(furan-2-ylmethyl)-6-methylpyrimidin-4-amine","-","A55638","25489863","-","-","95.0 - 97.0","?C","96.0","Celsius"
"OC(=O)CCC1=NN=CN1","-","EN300-101197","3783","3-(4H-1,2,4-triazol-3-yl)propanoic acid","-","A55638","25489863","-","-","127.0 - 129.0","?C","128.0","Celsius"
"CCOC1=C(N)C=C(C=C1)C(=O)N(C)C","-","EN300-101203","3784","3-amino-4-ethoxy-N,N-dimethylbenzamide","-","A55638","25489863","-","-","127.0 - 129.0","?C","128.0","Celsius"
"CC1=CC=C(C=C1)C1=CSC(Cl)=N1","-","EN300-101216","3786","2-chloro-4-(4-methylphenyl)-1,3-thiazole","-","A55638","25489863","-","-","93.0 - 95.0","?C","94.0","Celsius"
"CC1=NC(CCCC(O)=O)=CS1","-","EN300-101218","3788","4-(2-methyl-1,3-thiazol-4-yl)butanoic acid","-","A55638","25489863","-","-","66.0 - 68.0","?C","67.0","Celsius"
"CC1=C(C=C(C(O)=O)C(=O)N1)C1=CC=CC=C1","-","EN300-101219","3789","6-methyl-2-oxo-5-phenyl-1,2-dihydropyridine-3-carboxylic acid","-","A55638","25489863","-","-","258.0 - 260.0","?C","259.0","Celsius"
"OC(=O)CCC1=NC2=C(N1)C=CC=C2F","-","EN300-101221","3791","3-(4-fluoro-1H-1,3-benzodiazol-2-yl)propanoic acid","-","A55638","25489863","-","-","185.0 - 187.0","?C","186.0","Celsius"
"CC(C)(C)OC(=O)NC1CCCCCC1C(O)=O","-","EN300-101223","3792","2-{[(tert-butoxy)carbonyl]amino}cycloheptane-1-carboxylic acid","-","A55638","25489863","-","-","123.0 - 125.0","?C","124.0","Celsius"
"NC(=O)CCNC1=NC=NC(Cl)=C1","-","EN300-101224","3793","3-[(6-chloropyrimidin-4-yl)amino]propanamide","-","A55638","25489863","-","-","165.0 - 167.0","?C","166.0","Celsius"
"CCN1N=C(N)C=C1C1CC1","-","EN300-101225","3794","5-cyclopropyl-1-ethyl-1H-pyrazol-3-amine","-","A55638","25489863","-","-","111.0 - 113.0","?C","112.0","Celsius"
"OC(=O)CCC1=NC2=C(N1)C(Cl)=CC=C2","-","EN300-101228","3795","3-(7-chloro-1H-1,3-benzodiazol-2-yl)propanoic acid","-","A55638","25489863","-","-","209.0 - 211.0","?C","210.0","Celsius"
"CC1CCCN1C(=O)C1=CC=C(C=C1)C#N","-","EN300-101229","3796","4-[(2-methylpyrrolidin-1-yl)carbonyl]benzonitrile","-","A55638","25489863","-","-","87.0 - 89.0","?C","88.0","Celsius"
"CCOC(=O)C1=C(N)C=C(S1)C1=CC=C(Cl)C=C1","91076-94-7","EN300-10123","3797","ethyl 3-amino-5-(4-chlorophenyl)thiophene-2-carboxylate","-","A55638","25489863","-","-","200.0 - 202.0","?C","201.0","Celsius"
"NC1=CC(=CC=C1)C1=NOC(=N1)C1CC1","-","EN300-101237","3798","3-(5-cyclopropyl-1,2,4-oxadiazol-3-yl)aniline","-","A55638","25489863","-","-","69.0 - 71.0","?C","70.0","Celsius"
"OC(=O)C1=C(F)C(=CC=C1F)[N+]([O-])=O","-","EN300-101239","3800","2,6-difluoro-3-nitrobenzoic acid","-","A55638","25489863","-","-","92.0 - 96.0","?C","94.0","Celsius"
"CC1=C(I)C=CC(N)=N1","-","EN300-101241","3802","5-iodo-6-methylpyridin-2-amine","-","A55638","25489863","-","-","99.0 - 100.0","?C","99.5","Celsius"
"CC1=CC(=O)NN1","-","EN300-101244","3803","5-methyl-2,3-dihydro-1H-pyrazol-3-one","-","A55638","25489863","-","-","223.0 - 225.0","?C","224.0","Celsius"