"SMILES","CASRN","EXTERNALID","N","NAME","NAME","ARTICLEID","PUBMEDID","PAGE","TABLE","Melting Point {measured}","UNIT {Melting Point}","Melting Point {measured, converted}","UNIT {Melting Point}"
"CC1=CC(SC#N)=CC(C)=C1N","14031-02-8","EN300-06908","2403","4-amino-3,5-dimethylphenyl thiocyanate","-","A55638","25489863","-","-","82.0 - 84.0","?C","83.0","Celsius"
"CC1=NN(CC(O)=O)C(C)=C1[N+]([O-])=O","345637-69-6","EN300-06909","2404","(3,5-dimethyl-4-nitro-1H-pyrazol-1-yl)acetic acid","-","A55638","25489863","-","-","179.0 - 181.0","?C","180.0","Celsius"
"CCOC(=O)C1=C(N)SC(=C1C)C1=CC=CC=C1","4815-38-7","EN300-06910","2405","ethyl 2-amino-4-methyl-5-phenylthiophene-3-carboxylate","-","A55638","25489863","-","-","94.0 - 96.0","?C","95.0","Celsius"
"COC1=C(C=C(C=C1)C(O)=O)S(=O)(=O)N1CCCCC1C","-","EN300-06911","2406","4-methoxy-3-[(2-methylpiperidin-1-yl)sulfonyl]benzoic acid","-","A55638","25489863","-","-","175.0 - 180.0","?C","178.0","Celsius"
"CC(C)CCN1C(C)=CC(C(=O)CCl)=C1C","-","EN300-06912","2407","2-chloro-1-[2,5-dimethyl-1-(3-methylbutyl)-1H-pyrrol-3-yl]ethanone","-","A55638","25489863","-","-","55.0 - 57.0","?C","56.0","Celsius"
"CC(=O)CN1C(CCl)=NC2=C(C=CC=C2)C1=O","-","EN300-06915","2408","2-(chloromethyl)-3-(2-oxopropyl)quinazolin-4(3H)-one","-","A55638","25489863","-","-","167.0 - 169.0","?C","168.0","Celsius"
"NC1=C(OC2=C1C=CC=C2)C(=O)C1=CC=CO1","-","EN300-06916","2409","(3-amino-1-benzofuran-2-yl)(2-furyl)methanone","-","A55638","25489863","-","-","180.0 - 182.0","?C","181.0","Celsius"
"OC(=O)C1=CC2=C(C=C1)C(=O)NC(CCl)=N2","-","EN300-06922","2410","2-(chloromethyl)-4-oxo-3,4-dihydroquinazoline-7-carboxylic acid","-","A55638","25489863","-","-","344.0 - 346.0","?C","345.0","Celsius"
"NC1=C(C=CC=C1)C(=O)NC1=CC(Cl)=CC=C1","22312-61-4","EN300-06924","2412","2-amino-N-(3-chlorophenyl)benzamide","-","A55638","25489863","-","-","131.0 - 135.0","?C","133.0","Celsius"
"COC1=CC(NC(=O)C2=C(C=CC=C2)N(C)C(=O)CCC(O)=O)=CC=C1","-","EN300-06925","2413","4-[(2-{[(3-methoxyphenyl)amino]carbonyl}phenyl)(methyl)amino]-4-oxobutanoic acid","-","A55638","25489863","-","-","125.0 - 127.0","?C","126.0","Celsius"
"NCCCC1=NNC(N)=C1C#N","-","EN300-06932","2416","5-amino-3-(3-aminopropyl)-1H-pyrazole-4-carbonitrile","-","A55638","25489863","-","-","169.0 - 171.0","?C","170.0","Celsius"
"CC1=C(SC(=N1)N1CCOCC1)C=O","90437-72-2","EN300-06933","2417","4-methyl-2-morpholin-4-yl-1,3-thiazole-5-carbaldehyde","-","A55638","25489863","-","-","166.0 - 168.0","?C","167.0","Celsius"
"NNC(=O)C1=CC(=C(Cl)C=C1)S(N)(=O)=O","5378-62-1","EN300-06935","2418","2-chloro-5-(hydrazinocarbonyl)benzenesulfonamide","-","A55638","25489863","-","-","212.0 - 214.0","?C","213.0","Celsius"
"OC1=C(CN2CCOCC2)C2=C(C=CC=C2)C=C1","27438-39-7","EN300-06939","2419","1-(Morpholin-4-ylmethyl)-2-naphthol","-","A55638","25489863","-","-","52.0 - 54.0","?C","53.0","Celsius"
"NC1=C(NC2=CC(=CC=C2)C(F)(F)F)C=CC(=C1)[N+]([O-])=O","-","EN300-06942","2420","N-(2-amino-4-nitrophenyl)-N-[3-(trifluoromethyl)phenyl]amine","-","A55638","25489863","-","-","165.0 - 167.0","?C","166.0","Celsius"
"CC1=CC=C(C=C1)N1C(S)=NN=C1C1=CC=C(Cl)C=C1","41401-15-4","EN300-06951","2421","5-(4-chlorophenyl)-4-(4-methylphenyl)-4H-1,2,4-triazole-3-thiol","-","A55638","25489863","-","-","141.0 - 143.0","?C","142.0","Celsius"
"CCCN1C(C)=CC(C=C(C#N)C(O)=O)=C1C","-","EN300-06965","2422","(2E)-2-cyano-3-(2,5-dimethyl-1-propyl-1H-pyrrol-3-yl)acrylic acid","-","A55638","25489863","-","-","199.0 - 201.0","?C","200.0","Celsius"
"FC(F)(F)C1=CC2=C(C=C1)C(=O)NC(CCl)=N2","-","EN300-06966","2423","2-(chloromethyl)-7-(trifluoromethyl)quinazolin-4(3H)-one","-","A55638","25489863","-","-","209.0 - 211.0","?C","210.0","Celsius"
"CC1=CC2=C(NC(=O)C2=NO)C=C1","13208-98-5","EN300-06967","2424","(3Z)-5-methyl-1H-indole-2,3-dione 3-oxime","-","A55638","25489863","-","-","239.0 - 241.0","?C","240.0","Celsius"
"ON=C1C(=O)NC2=C1C=C(Br)C=C2","49675-78-7","EN300-06968","2425","(3Z)-5-bromo-1H-indole-2,3-dione 3-oxime","-","A55638","25489863","-","-","268.0 - 270.0","?C","269.0","Celsius"
"OC(=O)C1CCN(CC1)S(=O)(=O)C1=CC(=CC=C1)C(F)(F)F","-","EN300-06972","2426","1-{[3-(trifluoromethyl)phenyl]sulfonyl}piperidine-4-carboxylic acid","-","A55638","25489863","-","-","135.0 - 136.0","?C","136.0","Celsius"
"CCCCCCCOC1=C(OCC)C=C(C=O)C=C1","-","EN300-06978","2427","3-ethoxy-4-(heptyloxy)benzaldehyde","-","A55638","25489863","-","-","43.0 - 47.0","?C","45.0","Celsius"
"NC1=CC=C(OC2=CC=C(Br)C=C2)C=C1","31465-35-7","EN300-06982","2428","4-(4-bromophenoxy)aniline","-","A55638","25489863","-","-","58.0 - 60.0","?C","59.0","Celsius"
"CCOC1=C(OCC)C=C(C(Br)=C1)[N+]([O-])=O","73775-84-5","EN300-06985","2429","1-bromo-4,5-diethoxy-2-nitrobenzene","-","A55638","25489863","-","-","62.0 - 64.0","?C","63.0","Celsius"
"CCOC1=C(N)C=C(C=C1)S(=O)(=O)N1CCCCC1","-","EN300-06991","2430","2-ethoxy-5-(piperidin-1-ylsulfonyl)aniline","-","A55638","25489863","-","-","134.0 - 136.0","?C","135.0","Celsius"
"CC(C)OC1=C(N)C=C(C=C1)S(=O)(=O)N1CCOCC1","-","EN300-06992","2431","2-isopropoxy-5-(morpholin-4-ylsulfonyl)aniline","-","A55638","25489863","-","-","149.0 - 151.0","?C","150.0","Celsius"
"SC1=NN=C(N1)SCC1=C(Cl)C=CC=C1","-","EN300-06993","2432","5-[(2-chlorobenzyl)thio]-4H-1,2,4-triazole-3-thiol","-","A55638","25489863","-","-","132.0 - 135.0","?C","134.0","Celsius"
"CCOC1=CC=C(NS(=O)(=O)C2=CC(N)=C(C)C=C2)C=C1","-","EN300-07000","2435","3-amino-N-(4-ethoxyphenyl)-4-methylbenzenesulfonamide","-","A55638","25489863","-","-","116.0 - 118.0","?C","117.0","Celsius"
"CCN(CC)S(=O)(=O)C1=C(C)C=CC(=C1)C(O)=O","-","EN300-07001","2436","3-[(diethylamino)sulfonyl]-4-methylbenzoic acid","-","A55638","25489863","-","-","142.0 - 144.0","?C","143.0","Celsius"
"CC1=C(N)C=C(C=C1)S(=O)(=O)NC1=CC(=CC=C1)C(F)(F)F","-","EN300-07002","2437","3-amino-4-methyl-N-[3-(trifluoromethyl)phenyl]benzenesulfonamide","-","A55638","25489863","-","-","116.0 - 118.0","?C","117.0","Celsius"
"CCOC(=O)C1=C(C)C2=C(S1)N=C(CN1CCOCC1)N=C2Cl","-","EN300-07004","2438","ethyl 4-chloro-5-methyl-2-(morpholin-4-ylmethyl)thieno[2,3-d]pyrimidine-6-carboxylate","-","A55638","25489863","-","-","110.0 - 112.0","?C","111.0","Celsius"
"OC(=O)C1CCN(CC1)S(=O)(=O)C1=C(C=CC=C1)C(F)(F)F","-","EN300-07006","2439","1-{[2-(trifluoromethyl)phenyl]sulfonyl}piperidine-4-carboxylic acid","-","A55638","25489863","-","-","127.0 - 129.0","?C","128.0","Celsius"
"CC(=O)CC(=O)NC1=C(C)C(C)=CC=C1","-","EN300-07007","2440","N-(2,3-dimethylphenyl)-3-oxobutanamide","-","A55638","25489863","-","-","91.0 - 93.0","?C","92.0","Celsius"
"OC(=O)C1CCN(CC1)S(=O)(=O)C1=C(F)C=CC=C1","-","EN300-07009","2441","1-[(2-fluorophenyl)sulfonyl]piperidine-4-carboxylic acid","-","A55638","25489863","-","-","130.0 - 132.0","?C","131.0","Celsius"
"CSCCC(NS(=O)(=O)C1=CC=CC=C1)C(O)=O","51786-15-3","EN300-07010","2442","4-(methylthio)-2-[(phenylsulfonyl)amino]butanoic acid","-","A55638","25489863","-","-","103.0 - 105.0","?C","104.0","Celsius"
"OC(=O)CCNS(=O)(=O)C1=CC=CC=C1","31867-78-4","EN300-07011","2443","3-[(phenylsulfonyl)amino]propanoic acid","-","A55638","25489863","-","-","110.0 - 114.0","?C","112.0","Celsius"
"OC(=O)CSC1=NN=C(N1C1=CC=C(Cl)C=C1)C1=CC=CC=C1","-","EN300-07017","2444","{[4-(4-chlorophenyl)-5-phenyl-4H-1,2,4-triazol-3-yl]thio}acetic acid","-","A55638","25489863","-","-","224.0 - 226.0","?C","225.0","Celsius"
"N1C=C(C=N1)C1=CC=CC=C1","10199-68-5","EN300-07023","2445","4-phenyl-1H-pyrazole","-","A55638","25489863","-","-","229.0 - 231.0","?C","230.0","Celsius"
"CN1C(CCC(O)=O)=NC(=O)C2=C1C=CC=C2","-","EN300-07029","2447","3-(1-methyl-4-oxo-1,4-dihydroquinazolin-2-yl)propanoic acid","-","A55638","25489863","-","-","200.0 - 202.0","?C","201.0","Celsius"
"CCN(CC)S(=O)(=O)C1=CN=C(NN)C=C1","-","EN300-07034","2448","N,N-diethyl-6-hydrazinopyridine-3-sulfonamide","-","A55638","25489863","-","-","134.0 - 136.0","?C","135.0","Celsius"
"CC1(C)N(C(=O)CCl)C2=C(NC1=O)C=CC=C2","-","EN300-07039","2450","4-(chloroacetyl)-3,3-dimethyl-3,4-dihydroquinoxalin-2(1H)-one","-","A55638","25489863","-","-","170.0 - 172.0","?C","171.0","Celsius"
"CC(=O)C1=C(C)C2=C(S1)N=C(CCl)NC2=O","-","EN300-07045","2452","6-acetyl-2-(chloromethyl)-5-methylthieno[2,3-d]pyrimidin-4(3H)-one","-","A55638","25489863","-","-","247.0 - 249.0","?C","248.0","Celsius"
"OC1=C(C=C(C=C1)S(Cl)(=O)=O)[N+]([O-])=O","147682-51-7","EN300-07054","2453","4-hydroxy-3-nitrobenzenesulfonyl chloride","-","A55638","25489863","-","-","52.0 - 54.0","?C","53.0","Celsius"
"CC(=O)CC(=O)C1=CC=C(Br)C=C1","4023-81-8","EN300-07055","2454","1-(4-bromophenyl)butane-1,3-dione","-","A55638","25489863","-","-","92.0 - 94.0","?C","93.0","Celsius"
"ClC1=CC=C(SCC2=NC3=C(C4=C(CCC4)S3)C(Cl)=N2)C=C1","-","EN300-07057","2455","4-chloro-2-{[(4-chlorophenyl)thio]methyl}-6,7-dihydro-5H-cyclopenta[4,5]thieno[2,3-d]pyrimidine","-","A55638","25489863","-","-","71.0 - 75.0","?C","73.0","Celsius"
"ClCC1=NC=C(O1)C1=CC=CC=C1","64640-13-7","EN300-07059","2456","2-(chloromethyl)-5-phenyl-1,3-oxazole","-","A55638","25489863","-","-","63.0 - 65.0","?C","64.0","Celsius"
"CC(SC1=CC=C(Cl)C=C1)C(O)=O","18527-12-3","EN300-07064","2457","2-[(4-chlorophenyl)thio]propanoic acid","-","A55638","25489863","-","-","106.0 - 108.0","?C","107.0","Celsius"
"CCCN1C(=O)NC(=O)C(NCCN2CCOCC2)=C1N","-","EN300-07066","2458","6-amino-5-[(2-morpholin-4-ylethyl)amino]-1-propylpyrimidine-2,4(1H,3H)-dione","-","A55638","25489863","-","-","153.0 - 155.0","?C","154.0","Celsius"
"COC1=CC=C(OC2=C(N)C=C(Cl)C=C2)C=C1","-","EN300-07075","2460","5-chloro-2-(4-methoxyphenoxy)aniline","-","A55638","25489863","-","-","47.0 - 49.0","?C","48.0","Celsius"
"ClC1=NC=C(C=C1)S(Cl)(=O)=O","6684-39-5","EN300-07076","2461","6-chloropyridine-3-sulfonyl chloride","-","A55638","25489863","-","-","48.0 - 50.0","?C","49.0","Celsius"
"CCN(CC)C1=C(C=C(C=C1)[N+]([O-])=O)C(O)=O","-","EN300-07087","2462","2-(diethylamino)-5-nitrobenzoic acid","-","A55638","25489863","-","-","184.0 - 186.0","?C","185.0","Celsius"
"ClC1=C2C3=C(CCC3)SC2=NC(CN2CCOCC2)=N1","-","EN300-07096","2463","4-chloro-2-(morpholin-4-ylmethyl)-6,7-dihydro-5H-cyclopenta[4,5]thieno[2,3-d]pyrimidine","-","A55638","25489863","-","-","103.0 - 107.0","?C","105.0","Celsius"
"COC1=C(CSC2=NN=NN2C)C=C(C=C1)C(C)=O","-","EN300-07116","2465","1-(4-methoxy-3-{[(1-methyl-1H-tetrazol-5-yl)thio]methyl}phenyl)ethanone","-","A55638","25489863","-","-","64.0 - 66.0","?C","65.0","Celsius"
"ClCC(=O)C1=CC2=C(NC(=O)N2)C=C1","93202-41-6","EN300-07119","2466","5-(chloroacetyl)-1,3-dihydro-2H-benzimidazol-2-one","-","A55638","25489863","-","-","283.0 - 285.0","?C","284.0","Celsius"
"O=CC1=C(N=C2C=CC=CC2=C1)N1CCCCC1","-","EN300-07122","2467","2-piperidin-1-ylquinoline-3-carbaldehyde","-","A55638","25489863","-","-","118.0 - 120.0","?C","119.0","Celsius"
"CN1C(Cl)=C(C=O)C2=C1C=CC(C=O)=C2","66335-32-8","EN300-07126","2469","2-chloro-1-methyl-1H-indole-3,5-dicarbaldehyde","-","A55638","25489863","-","-","164.0 - 166.0","?C","165.0","Celsius"
"OC(=O)C1CCCCN1S(=O)(=O)C1=CC=C(Br)S1","-","EN300-07130","2470","1-[(5-bromothien-2-yl)sulfonyl]piperidine-2-carboxylic acid","-","A55638","25489863","-","-","125.0 - 127.0","?C","126.0","Celsius"
"CC1=C(C=C2C=CC(F)=CC2=N1)C(O)=O","879361-44-1","EN300-07134","2471","7-fluoro-2-methylquinoline-3-carboxylic acid","-","A55638","25489863","-","-","262.0 - 264.0","?C","263.0","Celsius"
"CC1=C(C=C2C=C(Cl)C=CC2=N1)C(O)=O","92513-40-1","EN300-07136","2472","6-chloro-2-methylquinoline-3-carboxylic acid","-","A55638","25489863","-","-","218.0 - 220.0","?C","219.0","Celsius"
"ClC1=C2C=CC=CC2=C(N=N1)C1=CC=CC=C1","10132-01-1","EN300-07142","2473","1-chloro-4-phenylphthalazine","-","A55638","25489863","-","-","156.0 - 158.0","?C","157.0","Celsius"
"OC(=O)C1CCN(CC1)S(=O)(=O)C1=CC=C(Br)S1","-","EN300-07143","2474","1-[(5-bromothien-2-yl)sulfonyl]piperidine-4-carboxylic acid","-","A55638","25489863","-","-","166.0 - 168.0","?C","167.0","Celsius"
"OC(=O)C1CCCN(C1)S(=O)(=O)C1=CC=C(Br)S1","-","EN300-07147","2475","1-[(5-bromothien-2-yl)sulfonyl]piperidine-3-carboxylic acid","-","A55638","25489863","-","-","157.0 - 159.0","?C","158.0","Celsius"
"CC1=CC(C)=C(C(C)=C1)S(=O)(=O)N1CCC(CC1)C(O)=O","-","EN300-07148","2476","1-(mesitylsulfonyl)piperidine-4-carboxylic acid","-","A55638","25489863","-","-","181.0 - 183.0","?C","182.0","Celsius"
"OC(=O)C1CCCCN1S(=O)(=O)C1=CC=C(Br)C=C1","-","EN300-07151","2477","1-[(4-bromophenyl)sulfonyl]piperidine-2-carboxylic acid","-","A55638","25489863","-","-","133.0 - 135.0","?C","134.0","Celsius"
"OC(=O)C1CCCN(C1)S(=O)(=O)C1=CC=C(F)C=C1","-","EN300-07153","2478","1-[(4-fluorophenyl)sulfonyl]piperidine-3-carboxylic acid","-","A55638","25489863","-","-","156.0 - 160.0","?C","158.0","Celsius"
"OC(=O)C1CCCN(C1)S(=O)(=O)C1=CC=C(C=C1)[N+]([O-])=O","-","EN300-07154","2479","1-[(4-nitrophenyl)sulfonyl]piperidine-3-carboxylic acid","-","A55638","25489863","-","-","221.0 - 223.0","?C","222.0","Celsius"
"OC(=O)C1CCCCN1S(=O)(=O)C1=CC=C(C=C1)[N+]([O-])=O","-","EN300-07155","2480","1-[(4-nitrophenyl)sulfonyl]piperidine-2-carboxylic acid","-","A55638","25489863","-","-","161.0 - 163.0","?C","162.0","Celsius"
"OC(=O)C1CCCN1S(=O)(=O)C1=CC=CC=C1","-","EN300-07165","2482","1-(phenylsulfonyl)pyrrolidine-2-carboxylic acid","-","A55638","25489863","-","-","79.0 - 81.0","?C","80.0","Celsius"
"CC1=CC(C)=C(C(C)=C1)S(=O)(=O)N1CCCC1C(O)=O","126522-74-5","EN300-07166","2483","1-(mesitylsulfonyl)pyrrolidine-2-carboxylic acid","-","A55638","25489863","-","-","84.0 - 86.0","?C","85.0","Celsius"
"OC1=C2NCCCC2=CC=C1","6640-50-2","EN300-07172","2484","1,2,3,4-tetrahydroquinolin-8-ol","-","A55638","25489863","-","-","116.0 - 118.0","?C","117.0","Celsius"
"CC1=C(C=C2C=CC=CC2=N1)C(O)=O","635-79-0","EN300-07174","2485","2-methylquinoline-3-carboxylic acid","-","A55638","25489863","-","-","243.0 - 245.0","?C","244.0","Celsius"
"CC1=CC2=C(C=C1)C=C(C(O)=O)C(C)=N2","470702-35-3","EN300-07175","2486","2,7-dimethylquinoline-3-carboxylic acid","-","A55638","25489863","-","-","197.0 - 199.0","?C","198.0","Celsius"
"CC1=CC2=C(C=C1)N=C(C)C(=C2)C(O)=O","610261-45-5","EN300-07176","2487","2,6-dimethylquinoline-3-carboxylic acid","-","A55638","25489863","-","-","174.0 - 176.0","?C","175.0","Celsius"
"COC1=CC2=C(C=C1)C=C(C(O)=O)C(C)=N2","470702-34-2","EN300-07177","2488","7-methoxy-2-methylquinoline-3-carboxylic acid","-","A55638","25489863","-","-","209.0 - 211.0","?C","210.0","Celsius"
"COC1=CC2=C(C=C1)N=C(C)C(=C2)C(O)=O","88752-76-5","EN300-07178","2489","6-methoxy-2-methylquinoline-3-carboxylic acid","-","A55638","25489863","-","-","221.0 - 223.0","?C","222.0","Celsius"
"OC(=O)C1CCCN1S(=O)(=O)C1=CC=C(Br)C=C1","-","EN300-07179","2490","1-[(4-bromophenyl)sulfonyl]pyrrolidine-2-carboxylic acid","-","A55638","25489863","-","-","103.0 - 105.0","?C","104.0","Celsius"
"OC(=O)C1CCCN1S(=O)(=O)C1=CC(=CC=C1)[N+]([O-])=O","-","EN300-07182","2491","1-[(3-nitrophenyl)sulfonyl]pyrrolidine-2-carboxylic acid","-","A55638","25489863","-","-","182.0 - 184.0","?C","183.0","Celsius"
"OC(=O)C1CCCN1S(=O)(=O)C1=CC=CS1","-","EN300-07183","2492","1-(thien-2-ylsulfonyl)pyrrolidine-2-carboxylic acid","-","A55638","25489863","-","-","99.0 - 101.0","?C","100.0","Celsius"
"OC(=O)C1CCCN1S(=O)(=O)C1=CC=C(Cl)S1","-","EN300-07185","2493","1-[(5-chlorothien-2-yl)sulfonyl]pyrrolidine-2-carboxylic acid","-","A55638","25489863","-","-","44.0 - 46.0","?C","45.0","Celsius"
"OC(=O)C1CCCN(C1)S(=O)(=O)C1=CC2=C(C=CC=C2)C=C1","-","EN300-07188","2494","1-(2-naphthylsulfonyl)piperidine-3-carboxylic acid","-","A55638","25489863","-","-","137.0 - 139.0","?C","138.0","Celsius"
"CC1=C(SC2=C1C(=O)NC(CCl)=N2)C(O)=O","-","EN300-07202","2495","2-(chloromethyl)-5-methyl-4-oxo-3,4-dihydrothieno[2,3-d]pyrimidine-6-carboxylic acid","-","A55638","25489863","-","-","322.0 - 324.0","?C","323.0","Celsius"
"CCCCN1C2=C(N(CC(C)C)C(CCC(O)=O)=N2)C(=O)NC1=O","-","EN300-07205","2496","3-(3-butyl-7-isobutyl-2,6-dioxo-2,3,6,7-tetrahydro-1H-purin-8-yl)propanoic acid","-","A55638","25489863","-","-","147.0 - 149.0","?C","148.0","Celsius"
"O=CC1=CC=C(S1)N1CCCCC1","24372-48-3","EN300-07208","2497","5-piperidin-1-ylthiophene-2-carbaldehyde","-","A55638","25489863","-","-","73.0 - 75.0","?C","74.0","Celsius"
"ClC1=NC(Cl)=C(S1)C=O","92972-48-0","EN300-07215","2498","2,4-dichloro-1,3-thiazole-5-carbaldehyde","-","A55638","25489863","-","-","38.0 - 42.0","?C","40.0","Celsius"
"CCOC(=O)CN(C(=O)CCl)C1=CC=CC=C1","51114-26-2","EN300-07217","2499","ethyl [(chloroacetyl)(phenyl)amino]acetate","-","A55638","25489863","-","-","130.0 - 135.0","?C","132.0","Celsius"
"CC(Cl)C(=O)C1=C(C)NC2=C1C=CC=C2","-","EN300-07223","2500","2-chloro-1-(2-methyl-1H-indol-3-yl)propan-1-one","-","A55638","25489863","-","-","133.0 - 135.0","?C","134.0","Celsius"
"CCOC(=O)C1=CC=C(C=C1)S(=O)(=O)N1CCC(CC1)C(O)=O","-","EN300-07229","2501","1-{[4-(ethoxycarbonyl)phenyl]sulfonyl}piperidine-4-carboxylic acid","-","A55638","25489863","-","-","219.0 - 221.0","?C","220.0","Celsius"
"CC1=CC(C(=O)CCl)=C(C)N1C1=CC2=C(OCCO2)C=C1","-","EN300-07235","2502","2-chloro-1-[1-(2,3-dihydro-1,4-benzodioxin-6-yl)-2,5-dimethyl-1H-pyrrol-3-yl]ethanone","-","A55638","25489863","-","-","99.0 - 103.0","?C","101.0","Celsius"
"BrC1=CC(=CC=C1)S(=O)(=O)N1CCNCC1","-","EN300-07236","2503","1-[(3-bromophenyl)sulfonyl]piperazine","-","A55638","25489863","-","-","97.0 - 101.0","?C","99.0","Celsius"
"CN(C)CC1=C2C=CC=CC2=CC=C1O","5419-02-3","EN300-07237","2504","1-[(dimethylamino)methyl]-2-naphthol","-","A55638","25489863","-","-","73.0 - 75.0","?C","74.0","Celsius"
"OC(=O)C1=CC(NS(=O)(=O)C2=CC=CC=C2)=CC=C1","28547-15-1","EN300-07239","2505","3-[(phenylsulfonyl)amino]benzoic acid","-","A55638","25489863","-","-","199.0 - 201.0","?C","200.0","Celsius"
"CC1=CC(C(=O)CCl)=C(C)N1C1=CC2=C(OCO2)C=C1","-","EN300-07240","2506","1-[1-(1,3-benzodioxol-5-yl)-2,5-dimethyl-1H-pyrrol-3-yl]-2-chloroethanone","-","A55638","25489863","-","-","98.0 - 110.0","?C","104.0","Celsius"
"COC1=C(O)C(Cl)=CC(C=O)=C1","19463-48-0","EN300-07241","2507","3-CHLORO-4-HYDROXY-5-METHOXYBENZALDEHYDE","-","A55638","25489863","-","-","162.0 - 166.0","?C","164.0","Celsius"
"CCOC1=C(O)C=CC(C=C(C(O)=O)C2=CC=CC=C2)=C1","87751-73-3","EN300-07243","2508","(2Z)-3-(3-ethoxy-4-hydroxyphenyl)-2-phenylacrylic acid","-","A55638","25489863","-","-","186.0 - 188.0","?C","187.0","Celsius"
"CC(=O)C1=CC=C(OCC(=O)N2CCCC2)C=C1","42018-32-6","EN300-07248","2509","1-[4-(2-oxo-2-pyrrolidin-1-ylethoxy)phenyl]ethanone","-","A55638","25489863","-","-","122.0 - 124.0","?C","123.0","Celsius"
"CC(OC1=CC(Br)=CC=C1)C(=O)NN","-","EN300-07255","2510","2-(3-bromophenoxy)propanohydrazide","-","A55638","25489863","-","-","113.0 - 115.0","?C","114.0","Celsius"
"NC1=NN=C(O1)C1=CC(Br)=CC=C1","109060-66-4","EN300-07256","2511","5-(3-bromophenyl)-1,3,4-oxadiazol-2-amine","-","A55638","25489863","-","-","209.0 - 211.0","?C","210.0","Celsius"
"CCN(CC)S(=O)(=O)C1=CC(N)=C(OC(C)C)C=C1","-","EN300-07257","2512","3-amino-N,N-diethyl-4-isopropoxybenzenesulfonamide","-","A55638","25489863","-","-","89.0 - 91.0","?C","90.0","Celsius"
"NC1=C(N=C2C=CC=CC2=N1)N1CCCC1","-","EN300-07262","2513","3-pyrrolidin-1-ylquinoxalin-2-amine","-","A55638","25489863","-","-","149.0 - 151.0","?C","150.0","Celsius"
"CC(C)OCC1=C(OC2=C1C=CC=C2)C(O)=O","-","EN300-07264","2514","3-(isopropoxymethyl)-1-benzofuran-2-carboxylic acid","-","A55638","25489863","-","-","131.0 - 133.0","?C","132.0","Celsius"
"CCOCC1=C(OC2=C1C=CC=C2)C(O)=O","731802-26-9","EN300-07265","2515","3-(ethoxymethyl)-1-benzofuran-2-carboxylic acid","-","A55638","25489863","-","-","103.0 - 105.0","?C","104.0","Celsius"
"OC1=CC=C(NC2=NN=NS2)C=C1","23567-67-1","EN300-07267","2517","4-(1,2,3,4-Thiatriazol-5-ylamino)phenol","-","A55638","25489863","-","-","159.0 - 161.0","?C","160.0","Celsius"
"OC(=O)C1=CC2=C(NC(=O)C(=O)N2)C=C1","14121-55-2","EN300-07268","2518","2,3-dioxo-1,2,3,4-tetrahydroquinoxaline-6-carboxylic acid","-","A55638","25489863","-","-","250.0 - 252.0","?C","251.0","Celsius"