"SMILES","CASRN","EXTERNALID","N","NAME","NAME","ARTICLEID","PUBMEDID","PAGE","TABLE","Melting Point {measured}","UNIT {Melting Point}","Melting Point {measured, converted}","UNIT {Melting Point}"
"CC1=C(C(=CC(F)=C1)C(O)=O)[N+]([O-])=O","-","EN300-102926","4237","5-fluoro-3-methyl-2-nitrobenzoic acid","-","A55638","25489863","-","-","161.0 - 163.0","?C","162.0","Celsius"
"CC1=NN(C(Cl)=C1C(O)=O)C1=CC(Cl)=C(C)C=C1","-","EN300-102928","4238","5-chloro-1-(3-chloro-4-methylphenyl)-3-methyl-1H-pyrazole-4-carboxylic acid","-","A55638","25489863","-","-","241.0 - 243.0","?C","242.0","Celsius"
"ClC1CCS(=O)(=O)CC1","-","EN300-102929","4239","4-chloro-1$l^{6}-thiane-1,1-dione","-","A55638","25489863","-","-","129.0 - 131.0","?C","130.0","Celsius"
"CC1=C(SC2=C1C=CC(Cl)=C2)S(Cl)(=O)=O","-","EN300-102934","4241","6-chloro-3-methyl-1-benzothiophene-2-sulfonyl chloride","-","A55638","25489863","-","-","83.0 - 85.0","?C","84.0","Celsius"
"CCSC1=C(C=C(Cl)C=C1)C(O)=O","-","EN300-102935","4242","5-chloro-2-(ethylsulfanyl)benzoic acid","-","A55638","25489863","-","-","154.0 - 156.0","?C","155.0","Celsius"
"CC(=O)C1=CC=C(C=C1)S(=O)(=O)NC1=CC=C(C=C1)C(O)=O","-","EN300-10294","4243","4-{[(4-acetylphenyl)sulfonyl]amino}benzoic acid","-","A55638","25489863","-","-","152.0 - 154.0","?C","153.0","Celsius"
"OC(=O)C1(Br)CCC1","-","EN300-102949","4244","1-bromocyclobutane-1-carboxylic acid","-","A55638","25489863","-","-","40.0 - 42.0","?C","41.0","Celsius"
"OC(=O)C(CC1=CC=CC=C1)NS(=O)(=O)C1=C(F)C=CC=C1","-","EN300-10296","4246","2-{[(2-fluorophenyl)sulfonyl]amino}-3-phenylpropanoic acid","-","A55638","25489863","-","-","258.0 - 260.0","?C","259.0","Celsius"
"O=CC1=CN=C(C=C1)N1C=CN=C1","-","EN300-102962","4247","6-(1H-imidazol-1-yl)pyridine-3-carbaldehyde","-","A55638","25489863","-","-","139.0 - 141.0","?C","140.0","Celsius"
"OC(=O)C1=CN=C(C=C1)N1C=CC=C1","-","EN300-102964","4248","6-(1H-pyrrol-1-yl)pyridine-3-carboxylic acid","-","A55638","25489863","-","-","259.0 - 261.0","?C","260.0","Celsius"
"[O-][N+](=O)C1=C(OCC2CO2)C=CC(=C1)C#N","-","EN300-102965","4249","3-nitro-4-(oxiran-2-ylmethoxy)benzonitrile","-","A55638","25489863","-","-","85.0 - 87.0","?C","86.0","Celsius"
"ClC1=NC2=C(C=CC=C2)C(=C1)C(=O)N1CCOCC1","135323-95-4","EN300-10298","4253","2-chloro-4-(morpholin-4-ylcarbonyl)quinoline","-","A55638","25489863","-","-","175.0 - 177.0","?C","176.0","Celsius"
"OC(=O)C(=CC1=CNN=C1C1=CC(Br)=CC=C1)C#N","-","EN300-10303","4255","(2Z)-3-[3-(3-bromophenyl)-1H-pyrazol-4-yl]-2-cyanoacrylic acid","-","A55638","25489863","-","-","258.0 - 260.0","?C","259.0","Celsius"
"CN(C)C(=O)C1=CC(Br)=CC=C1","-","EN300-103033","4256","3-bromo-N,N-dimethylbenzamide","-","A55638","25489863","-","-","52.0 - 54.0","?C","53.0","Celsius"
"CCCC1CNCCN1","-","EN300-103036","4258","2-propylpiperazine","-","A55638","25489863","-","-","59.0 - 61.0","?C","60.0","Celsius"
"CCC(C(O)=O)C1=CC(=CC=C1)C(F)(F)F","-","EN300-103039","4259","2-[3-(trifluoromethyl)phenyl]butanoic acid","-","A55638","25489863","-","-","41.0 - 43.0","?C","42.0","Celsius"
"OC(=O)CCC1=COC=C1","-","EN300-103040","4260","3-(furan-3-yl)propanoic acid","-","A55638","25489863","-","-","63.0 - 65.0","?C","64.0","Celsius"
"CC1=NN(C(N)=N1)C1=CC=CC=C1","-","EN300-103042","4261","3-methyl-1-phenyl-1H-1,2,4-triazol-5-amine","-","A55638","25489863","-","-","131.0 - 133.0","?C","132.0","Celsius"
"O=CC1=CN=C(S1)C1=NC=CC=C1","-","EN300-103046","4262","2-(pyridin-2-yl)-1,3-thiazole-5-carbaldehyde","-","A55638","25489863","-","-","149.0 - 151.0","?C","150.0","Celsius"
"NC(=S)C1=CN=C2C=CC=CN12","-","EN300-103047","4263","imidazo[1,2-a]pyridine-3-carbothioamide","-","A55638","25489863","-","-","214.0 - 216.0","?C","215.0","Celsius"
"CC1=CC(CCCC(O)=O)=C(C)S1","-","EN300-103048","4264","4-(2,5-dimethylthiophen-3-yl)butanoic acid","-","A55638","25489863","-","-","56.0 - 58.0","?C","57.0","Celsius"
"CC(C)(C)C1CCC2=C(C1)SC(N)=C2C#N","42159-76-2","EN300-10306","4267","2-amino-6-tert-butyl-4,5,6,7-tetrahydro-1-benzothiophene-3-carbonitrile","-","A55638","25489863","-","-","180.0 - 182.0","?C","181.0","Celsius"
"OC(=O)CNS(=O)(=O)C1=CC2=C(OCCCO2)C=C1","-","EN300-10309","4273","[(3,4-dihydro-2H-1,5-benzodioxepin-7-ylsulfonyl)amino]acetic acid","-","A55638","25489863","-","-","75.0 - 77.0","?C","76.0","Celsius"
"OC(=O)C1CCN(CC1)S(=O)(=O)C1=CC2=C(OCCCO2)C=C1","-","EN300-10310","4274","1-(3,4-dihydro-2H-1,5-benzodioxepin-7-ylsulfonyl)piperidine-4-carboxylic acid","-","A55638","25489863","-","-","173.0 - 178.0","?C","176.0","Celsius"
"CC(C)(C)OC(=O)NC(CC#N)C1=CC=CC=C1","-","EN300-103107","4275","tert-butyl N-(2-cyano-1-phenylethyl)carbamate","-","A55638","25489863","-","-","104.0 - 106.0","?C","105.0","Celsius"
"NC(=NO)C1=NC=CN=C1","-","EN300-103145","4276","N'-hydroxypyrazine-2-carboximidamide","-","A55638","25489863","-","-","182.0 - 184.0","?C","183.0","Celsius"
"NNC1=C(Cl)C=NC=C1","-","EN300-103146","4277","3-chloro-4-hydrazinylpyridine","-","A55638","25489863","-","-","158.0 - 160.0","?C","159.0","Celsius"
"CC(C)N1C=NN=C1C1=C(N)C=CC=C1","-","EN300-103151","4279","2-[4-(propan-2-yl)-4H-1,2,4-triazol-3-yl]aniline","-","A55638","25489863","-","-","97.0 - 99.0","?C","98.0","Celsius"
"NC1=C(C=C(Cl)C=C1)C1=NC(=NO1)C1CCCC1","-","EN300-103152","4280","4-chloro-2-(3-cyclopentyl-1,2,4-oxadiazol-5-yl)aniline","-","A55638","25489863","-","-","107.0 - 109.0","?C","108.0","Celsius"
"FS(=O)(=O)CC1=C(Cl)C=CC=C1","-","EN300-103153","4281","(2-chlorophenyl)methanesulfonyl fluoride","-","A55638","25489863","-","-","69.0 - 71.0","?C","70.0","Celsius"
"CCC1=NOC(=N1)C1=C(N)C=CC(Cl)=C1","-","EN300-103154","4282","4-chloro-2-(3-ethyl-1,2,4-oxadiazol-5-yl)aniline","-","A55638","25489863","-","-","107.0 - 109.0","?C","108.0","Celsius"
"COCCC1=NOC(=N1)C1=C(N)C=CC(Cl)=C1","-","EN300-103155","4283","4-chloro-2-[3-(2-methoxyethyl)-1,2,4-oxadiazol-5-yl]aniline","-","A55638","25489863","-","-","93.0 - 95.0","?C","94.0","Celsius"
"O=CC1=CN=C(S1)C1=CSC=C1","-","EN300-103157","4285","2-(thiophen-3-yl)-1,3-thiazole-5-carbaldehyde","-","A55638","25489863","-","-","107.0 - 109.0","?C","108.0","Celsius"
"COC(=O)C1=C(F)C=C(C=C1F)C#N","-","EN300-103159","4286","methyl 4-cyano-2,6-difluorobenzoate","-","A55638","25489863","-","-","111.0 - 113.0","?C","112.0","Celsius"
"CN1CCC2=C1C=C(C=C2)S(Cl)(=O)=O","-","EN300-103161","4287","1-methyl-2,3-dihydro-1H-indole-6-sulfonyl chloride","-","A55638","25489863","-","-","62.0 - 64.0","?C","63.0","Celsius"
"COC(=O)C1=NSC=C1N","-","EN300-103167","4288","methyl 4-amino-1,2-thiazole-3-carboxylate","-","A55638","25489863","-","-","54.0 - 56.0","?C","55.0","Celsius"
"CC(C)(C)NS(=O)(=O)C1=CC(=C(Cl)C=C1)[N+]([O-])=O","-","EN300-10317","4289","N-(tert-butyl)-4-chloro-3-nitrobenzenesulfonamide","-","A55638","25489863","-","-","88.0 - 90.0","?C","89.0","Celsius"
"CS(=O)(=O)NC1=C(Cl)C=C(Br)C=C1","-","EN300-103181","4291","N-(4-bromo-2-chlorophenyl)methanesulfonamide","-","A55638","25489863","-","-","98.0 - 100.0","?C","99.0","Celsius"
"ClC1=C(C2=C(C=CC=C2)C=C1)S(Cl)(=O)=O","-","EN300-103183","4293","2-chloronaphthalene-1-sulfonyl chloride","-","A55638","25489863","-","-","65.0 - 67.0","?C","66.0","Celsius"
"CC1=C2OC(=O)C=C(CCl)C2=CC=C1O","-","EN300-10319","4295","4-(chloromethyl)-7-hydroxy-8-methyl-2H-chromen-2-one","-","A55638","25489863","-","-","268.0 - 270.0","?C","269.0","Celsius"
"CC(N1C(C)=CC(O)=CC1=O)C(O)=O","-","EN300-103193","4296","2-(4-hydroxy-6-methyl-2-oxo-1,2-dihydropyridin-1-yl)propanoic acid","-","A55638","25489863","-","-","258.0 - 260.0","?C","259.0","Celsius"
"CC(C)(C)C1=CC=C(C=C1)S(=O)(=O)N1CCNCC1","-","EN300-10320","4300","1-[(4-tert-butylphenyl)sulfonyl]piperazine","-","A55638","25489863","-","-","126.0 - 128.0","?C","127.0","Celsius"
"[O-][N+](=O)C1=C(C=CC(=C1)S(=O)(=O)N1CCOCC1)N1CCOCC1","-","EN300-103205","4301","4-[4-(morpholine-4-sulfonyl)-2-nitrophenyl]morpholine","-","A55638","25489863","-","-","154.0 - 156.0","?C","155.0","Celsius"
"OC(=O)CNS(=O)(=O)C1=CC=C(F)C=C1","-","EN300-10321","4302","{[(4-fluorophenyl)sulfonyl]amino}acetic acid","-","A55638","25489863","-","-","146.0 - 148.0","?C","147.0","Celsius"
"OC(=O)CCNS(=O)(=O)C1=CC=C(F)C=C1","-","EN300-10323","4303","3-{[(4-fluorophenyl)sulfonyl]amino}propanoic acid","-","A55638","25489863","-","-","123.0 - 127.0","?C","125.0","Celsius"
"CC1=C(Br)C2=C(C=C1)N=CC=C2","-","EN300-103237","4305","5-bromo-6-methylquinoline","-","A55638","25489863","-","-","44.0 - 46.0","?C","45.0","Celsius"
"OC(=O)C=CC1=C2C=CC=CC2=CN=C1","-","EN300-103256","4307","3-(isoquinolin-4-yl)prop-2-enoic acid","-","A55638","25489863","-","-","260.0 - 262.0","?C","261.0","Celsius"
"COC(=O)CNC1=C(C=C(C)C=N1)[N+]([O-])=O","-","EN300-103257","4308","methyl 2-[(5-methyl-3-nitropyridin-2-yl)amino]acetate","-","A55638","25489863","-","-","107.0 - 109.0","?C","108.0","Celsius"
"CN1CC(=O)NC2=C1C=CN=C2","-","EN300-103258","4309","1-methyl-1H,2H,3H,4H-pyrido[3,4-b]pyrazin-3-one","-","A55638","25489863","-","-","274.0 - 276.0","?C","275.0","Celsius"
"CSC1=NC(=CN1)C1=CC=CC=C1","-","EN300-103260","4310","2-(methylsulfanyl)-4-phenyl-1H-imidazole","-","A55638","25489863","-","-","130.0 - 132.0","?C","131.0","Celsius"
"CC(=CC(O)=O)C1=C(F)C=C(F)C=C1","-","EN300-103263","4311","3-(2,4-difluorophenyl)but-2-enoic acid","-","A55638","25489863","-","-","157.0 - 159.0","?C","158.0","Celsius"
"COC(=O)CNC1=C(C=CC=N1)[N+]([O-])=O","-","EN300-103264","4312","methyl 2-[(3-nitropyridin-2-yl)amino]acetate","-","A55638","25489863","-","-","104.0 - 106.0","?C","105.0","Celsius"
"CCOC(=O)CN(C)C1=C(C=NC=C1)[N+]([O-])=O","-","EN300-103272","4314","ethyl 2-[methyl(3-nitropyridin-4-yl)amino]acetate","-","A55638","25489863","-","-","82.0 - 84.0","?C","83.0","Celsius"
"COC(=O)C1=CC(C=O)=CN1","-","EN300-103273","4315","methyl 4-formyl-1H-pyrrole-2-carboxylate","-","A55638","25489863","-","-","124.0 - 126.0","?C","125.0","Celsius"
"OC(=O)C1=CC2=C(O1)C(Cl)=CC=C2","-","EN300-103274","4316","7-chloro-1-benzofuran-2-carboxylic acid","-","A55638","25489863","-","-","243.0 - 245.0","?C","244.0","Celsius"
"NC(=O)C1(O)CC2=C(C1)C=CC=C2","-","EN300-103275","4317","2-hydroxy-2,3-dihydro-1H-indene-2-carboxamide","-","A55638","25489863","-","-","186.0 - 188.0","?C","187.0","Celsius"
"CC(C)(C)C1=NOC(NC(=O)CBr)=C1","-","EN300-103278","4318","2-bromo-N-(3-tert-butyl-1,2-oxazol-5-yl)acetamide","-","A55638","25489863","-","-","139.0 - 141.0","?C","140.0","Celsius"
"CC(C)(C)OC(=O)C1=C(N)SN=N1","-","EN300-103280","4319","tert-butyl 5-amino-1,2,3-thiadiazole-4-carboxylate","-","A55638","25489863","-","-","134.0 - 136.0","?C","135.0","Celsius"
"C1CN=C(N1)C1=NC=CC=C1","-","EN300-103282","4320","2-(4,5-dihydro-1H-imidazol-2-yl)pyridine","-","A55638","25489863","-","-","149.0 - 151.0","?C","150.0","Celsius"
"COCCC1=NC2=C(O1)C=CC(N)=C2","-","EN300-103285","4322","2-(2-methoxyethyl)-1,3-benzoxazol-5-amine","-","A55638","25489863","-","-","44.0 - 46.0","?C","45.0","Celsius"
"OC(=O)CCOC1CCOCC1","-","EN300-103297","4324","3-(oxan-4-yloxy)propanoic acid","-","A55638","25489863","-","-","54.0 - 56.0","?C","55.0","Celsius"
"CCOC1=CC=C(C=C1)N1C(C)=CC(C(=O)CCl)=C1C","-","EN300-10330","4325","2-chloro-1-[1-(4-ethoxyphenyl)-2,5-dimethyl-1H-pyrrol-3-yl]ethanone","-","A55638","25489863","-","-","118.0 - 122.0","?C","120.0","Celsius"
"CC(C)N1N=CC=C1NC(=O)C(C)Cl","-","EN300-10332","4326","2-chloro-N-(1-isopropyl-1H-pyrazol-5-yl)propanamide","-","A55638","25489863","-","-","69.0 - 71.0","?C","70.0","Celsius"
"CCC1CCCCC1NC(=O)C1=CC(F)=NC=C1","-","EN300-103320","4327","N-(2-ethylcyclohexyl)-2-fluoropyridine-4-carboxamide","-","A55638","25489863","-","-","69.0 - 71.0","?C","70.0","Celsius"
"CC1(CCCC1)NC(=O)C1=CC(F)=NC=C1","-","EN300-103327","4328","2-fluoro-N-(1-methylcyclopentyl)pyridine-4-carboxamide","-","A55638","25489863","-","-","78.0 - 80.0","?C","79.0","Celsius"
"FC1=NC=CC(=C1)C(=O)NC1CCC2=C1C=CC=C2","-","EN300-103338","4329","N-(2,3-dihydro-1H-inden-1-yl)-2-fluoropyridine-4-carboxamide","-","A55638","25489863","-","-","121.0 - 123.0","?C","122.0","Celsius"
"CC(C)C1CCC(C)CC1NC(=O)C1=CC(F)=NC=C1","-","EN300-103339","4330","2-fluoro-N-[5-methyl-2-(propan-2-yl)cyclohexyl]pyridine-4-carboxamide","-","A55638","25489863","-","-","79.0 - 81.0","?C","80.0","Celsius"
"NC1=C(Cl)C(Cl)=CN=C1","-","EN300-103341","4331","4,5-dichloropyridin-3-amine","-","A55638","25489863","-","-","97.0 - 99.0","?C","98.0","Celsius"
"CCOC(=O)C1=C(C=O)C=NN1","-","EN300-103347","4332","ethyl 4-formyl-1H-pyrazole-5-carboxylate","-","A55638","25489863","-","-","168.0 - 170.0","?C","169.0","Celsius"
"NC(=O)NC(CC1=CC=CC=C1)C(O)=O","37534-65-9","EN300-10336","4333","2-[(aminocarbonyl)amino]-3-phenylpropanoic acid","-","A55638","25489863","-","-","186.0 - 188.0","?C","187.0","Celsius"
"OC(=O)C1=C(Br)C(=CC=C1)[N+]([O-])=O","-","EN300-103369","4334","2-Bromo-3-nitrobenzoic acid","-","A55638","25489863","-","-","184.0 - 186.0","?C","185.0","Celsius"
"ClCC(=O)NC1=CC=NN1C1CCCC1","-","EN300-10338","4335","2-chloro-N-(1-cyclopentyl-1H-pyrazol-5-yl)acetamide","-","A55638","25489863","-","-","76.0 - 78.0","?C","77.0","Celsius"
"CCC(C)N1N=CC=C1N","3524-19-4","EN300-10341","4336","1-sec-butyl-1H-pyrazol-5-amine","-","A55638","25489863","-","-","30.0 - 32.0","?C","31.0","Celsius"
"CC1=CC(O)=CC(=O)N1CCC(O)=O","-","EN300-103435","4337","3-(4-hydroxy-6-methyl-2-oxo-1,2-dihydropyridin-1-yl)propanoic acid","-","A55638","25489863","-","-","172.0 - 174.0","?C","173.0","Celsius"
"CC1=C(N)N(N=C1)C1=CC=CC=C1","-","EN300-103437","4339","4-methyl-1-phenyl-1H-pyrazol-5-amine","-","A55638","25489863","-","-","79.0 - 81.0","?C","80.0","Celsius"
"CC(=CC(O)=O)C1=C(OC(F)F)C=CC=C1","-","EN300-103444","4340","3-[2-(difluoromethoxy)phenyl]but-2-enoic acid","-","A55638","25489863","-","-","69.0 - 71.0","?C","70.0","Celsius"
"OC(=O)CC(CC1=CC=CC=C1)CC1=CC=CC=C1","-","EN300-103446","4341","3-benzyl-4-phenylbutanoic acid","-","A55638","25489863","-","-","82.0 - 84.0","?C","83.0","Celsius"
"OC(=O)C1=NC(OC2=CC=C(Cl)C=C2)=CC=C1","-","EN300-103449","4342","6-(4-chlorophenoxy)pyridine-2-carboxylic acid","-","A55638","25489863","-","-","115.0 - 117.0","?C","116.0","Celsius"
"CC(CN1CCC(C)CC1)C(=O)NN","-","EN300-10345","4343","2-methyl-3-(4-methylpiperidin-1-yl)propanohydrazide","-","A55638","25489863","-","-","113.0 - 115.0","?C","114.0","Celsius"
"ClC1=CC=C(OC2=NC(=CC=C2)C#N)C=C1","-","EN300-103450","4344","6-(4-chlorophenoxy)pyridine-2-carbonitrile","-","A55638","25489863","-","-","86.0 - 88.0","?C","87.0","Celsius"
"CC1=C(C(C)=NN1)S(Cl)(=O)=O","80466-78-0","EN300-10346","4345","3,5-dimethyl-1H-pyrazole-4-sulfonyl chloride","-","A55638","25489863","-","-","60.0 - 65.0","?C","62.5","Celsius"
"CC1=NC2=C(CCCC2)C(Cl)=N1","-","EN300-103464","4346","4-chloro-2-methyl-5,6,7,8-tetrahydroquinazoline","-","A55638","25489863","-","-","30.0 - 32.0","?C","31.0","Celsius"
"COC(=O)CSC1=NC(Cl)=CN=C1","-","EN300-103468","4348","methyl 2-[(6-chloropyrazin-2-yl)sulfanyl]acetate","-","A55638","25489863","-","-","32.0 - 34.0","?C","33.0","Celsius"
"CC1=CSC(=N1)N1CCC(=O)CC1","-","EN300-103469","4349","1-(4-methyl-1,3-thiazol-2-yl)piperidin-4-one","-","A55638","25489863","-","-","59.0 - 61.0","?C","60.0","Celsius"
"CC(CN1CCOCC1)C(=O)NN","-","EN300-10347","4350","2-methyl-3-morpholin-4-ylpropanohydrazide","-","A55638","25489863","-","-","86.0 - 88.0","?C","87.0","Celsius"
"COC(=O)C1=C(N)SC=C1C1CC1","-","EN300-103491","4351","methyl 2-amino-4-cyclopropylthiophene-3-carboxylate","-","A55638","25489863","-","-","72.0 - 74.0","?C","73.0","Celsius"
"NC1=C(C=CN=C1)C1=CC(F)=CC=C1","-","EN300-103497","4353","4-(3-fluorophenyl)pyridin-3-amine","-","A55638","25489863","-","-","66.0 - 68.0","?C","67.0","Celsius"
"CN(C)C(=O)C1=NC=CC(OC2=CC=C(N)C=C2)=C1","-","EN300-103502","4355","4-(4-aminophenoxy)-N,N-dimethylpyridine-2-carboxamide","-","A55638","25489863","-","-","113.0 - 115.0","?C","114.0","Celsius"
"COC1=C2OCCOC2=CC(C=O)=C1","-","EN300-10354","4356","8-methoxy-2,3-dihydro-1,4-benzodioxine-6-carbaldehyde","-","A55638","25489863","-","-","81.0 - 83.0","?C","82.0","Celsius"
"CC(C)(C)NC1=C(C=C(C=C1)C(O)=O)S(=O)(=O)NC(C)(C)C","-","EN300-10355","4357","4-(tert-butylamino)-3-[(tert-butylamino)sulfonyl]benzoic acid","-","A55638","25489863","-","-","243.0 - 245.0","?C","244.0","Celsius"
"OC(=O)C1=C(NCC2=C(Cl)C=CC=C2)C=CC=C1","-","EN300-103591","4358","2-{[(2-chlorophenyl)methyl]amino}benzoic acid","-","A55638","25489863","-","-","183.0 - 185.0","?C","184.0","Celsius"
"CCOC(=O)C1=CC(=CC(N)=C1)S(C)(=O)=O","-","EN300-103592","4359","ethyl 3-amino-5-methanesulfonylbenzoate","-","A55638","25489863","-","-","190.0 - 192.0","?C","191.0","Celsius"
"CC1=C(F)C=C(F)C(=C1)S(N)(=O)=O","-","EN300-103593","4360","2,4-difluoro-5-methylbenzene-1-sulfonamide","-","A55638","25489863","-","-","97.0 - 99.0","?C","98.0","Celsius"
"CC1=CC=C(C=CCC(O)=O)C=C1","-","EN300-103594","4361","4-(4-methylphenyl)but-3-enoic acid","-","A55638","25489863","-","-","105.0 - 107.0","?C","106.0","Celsius"
"NC1=NSC(=N1)N1CCNCC1","-","EN300-103596","4362","5-(piperazin-1-yl)-1,2,4-thiadiazol-3-amine","-","A55638","25489863","-","-","193.0 - 195.0","?C","194.0","Celsius"
"CC1=NN(CCO)C2=C1C=C(Br)C=N2","-","EN300-103597","4363","2-{5-bromo-3-methyl-1H-pyrazolo[3,4-b]pyridin-1-yl}ethan-1-ol","-","A55638","25489863","-","-","110.0 - 112.0","?C","111.0","Celsius"
"NC1=C(C=C(F)C=C1)C1=NC(CCOC2=CC=CC=C2)=NO1","-","EN300-103598","4364","4-fluoro-2-[3-(2-phenoxyethyl)-1,2,4-oxadiazol-5-yl]aniline","-","A55638","25489863","-","-","122.0 - 124.0","?C","123.0","Celsius"
"CN1CCN(CC1)C1=NC=C(C=O)C=N1","-","EN300-103600","4366","2-(4-methylpiperazin-1-yl)pyrimidine-5-carbaldehyde","-","A55638","25489863","-","-","90.0 - 92.0","?C","91.0","Celsius"
"CS(=O)(=O)NCC1=CC=C(O1)C(O)=O","-","EN300-103602","4367","5-(methanesulfonamidomethyl)furan-2-carboxylic acid","-","A55638","25489863","-","-","139.0 - 141.0","?C","140.0","Celsius"
"OC(=O)CCC1=NN=C(O1)C1=CN=CC=C1","-","EN300-103607","4370","3-[5-(pyridin-3-yl)-1,3,4-oxadiazol-2-yl]propanoic acid","-","A55638","25489863","-","-","197.0 - 199.0","?C","198.0","Celsius"
"OCCN1CCSCC1","-","EN300-103609","4371","2-(thiomorpholin-4-yl)ethan-1-ol","-","A55638","25489863","-","-","34.0 - 36.0","?C","35.0","Celsius"
"O=C1NC2CCCCCCC12","-","EN300-103615","4373","9-azabicyclo[6.2.0]decan-10-one","-","A55638","25489863","-","-","64.0 - 66.0","?C","65.0","Celsius"
"OC(=O)CN1CCCOC1=O","-","EN300-103638","4374","2-(2-oxo-1,3-oxazinan-3-yl)acetic acid","-","A55638","25489863","-","-","172.0 - 174.0","?C","173.0","Celsius"
"OC1CCC2=C(C1)NN=C2","-","EN300-103640","4375","4,5,6,7-tetrahydro-1H-indazol-6-ol","-","A55638","25489863","-","-","154.0 - 156.0","?C","155.0","Celsius"
"OC(CC1COCCN1)C1=CC=CS1","-","EN300-103642","4377","2-(morpholin-3-yl)-1-(thiophen-2-yl)ethan-1-ol","-","A55638","25489863","-","-","109.0 - 111.0","?C","110.0","Celsius"
"ClC1=C2SC=C(CBr)C2=CC=C1","-","EN300-103645","4379","3-(bromomethyl)-7-chloro-1-benzothiophene","-","A55638","25489863","-","-","84.0 - 86.0","?C","85.0","Celsius"
"OC(=O)C=CSCC1=CC=CO1","-","EN300-103646","4380","3-[(furan-2-ylmethyl)sulfanyl]prop-2-enoic acid","-","A55638","25489863","-","-","119.0 - 121.0","?C","120.0","Celsius"
"FC1=C(Cl)C=C(C=C1)C(=O)CCl","-","EN300-103647","4381","2-chloro-1-(3-chloro-4-fluorophenyl)ethan-1-one","-","A55638","25489863","-","-","37.0 - 39.0","?C","38.0","Celsius"
"CC(C(O)=O)C1=CC2=C(C=CC=C2)C=C1","-","EN300-103648","4382","2-(naphthalen-2-yl)propanoic acid","-","A55638","25489863","-","-","120.0 - 122.0","?C","121.0","Celsius"
"CC1=CC2=C(C=C1)C=C(CCl)C(Cl)=N2","521915-96-8","EN300-10365","4383","2-chloro-3-(chloromethyl)-7-methylquinoline","-","A55638","25489863","-","-","132.0 - 134.0","?C","133.0","Celsius"
"COC(=O)CCNC1=C(C=NC=C1)[N+]([O-])=O","-","EN300-103660","4384","methyl 3-[(3-nitropyridin-4-yl)amino]propanoate","-","A55638","25489863","-","-","93.0 - 95.0","?C","94.0","Celsius"
"NC(=O)NC(CCC(O)=O)C(O)=O","-","EN300-10368","4385","2-[(aminocarbonyl)amino]pentanedioic acid","-","A55638","25489863","-","-","161.0 - 163.0","?C","162.0","Celsius"