"SMILES","CASRN","EXTERNALID","N","NAME","NAME","ARTICLEID","PUBMEDID","PAGE","TABLE","Melting Point {measured}","UNIT {Melting Point}","Melting Point {measured, converted}","UNIT {Melting Point}"
"NC1=NC=C(CC2=C(Cl)C=C(Cl)C=C2)S1","-","EN300-02541","1045","5-(2,4-Dichloro-benzyl)-thiazol-2-ylamine","-","A55638","25489863","-","-","109.0 - 111.0","?C","110.0","Celsius"
"NC1=NC=C(CC2=C(Cl)C=CC(Cl)=C2)S1","405921-35-9","EN300-02542","1046","5-(2,5-Dichloro-benzyl)-thiazol-2-ylamine","-","A55638","25489863","-","-","110.0 - 114.0","?C","112.0","Celsius"
"NC1=NC=C(CC2=CC(Cl)=C(Cl)C=C2)S1","-","EN300-02543","1047","5-(3,4-Dichloro-benzyl)-thiazol-2-ylamine","-","A55638","25489863","-","-","83.0 - 85.0","?C","84.0","Celsius"
"NC1=NC=C(CC2=CC=C(Br)C=C2)S1","-","EN300-02544","1048","5-(4-bromobenzyl)-1,3-thiazol-2-amine","-","A55638","25489863","-","-","129.0 - 131.0","?C","130.0","Celsius"
"NC1=NC=C(CC2=CC(=CC=C2)C(F)(F)F)S1","-","EN300-02545","1049","5-(3-Trifluoromethyl-benzyl)-thiazol-2-ylamine","-","A55638","25489863","-","-","73.0 - 77.0","?C","75.0","Celsius"
"NC1=CC(OCC(F)(F)F)=CC(OCC(F)(F)F)=C1","-","EN300-02547","1050","3,5-Bis-(2,2,2-trifluoro-ethoxy)-phenylamine","-","A55638","25489863","-","-","50.0 - 52.0","?C","51.0","Celsius"
"NN1CC(=O)C(=C1N)C1=NC2=C(N1)C=CC=C2","-","EN300-02549","1051","1,5-Diamino-4-(1H-benzoimidazol-2-yl)-1,2-dihydro-pyrrol-3-one","-","A55638","25489863","-","-","296.0 - 300.0","?C","298.0","Celsius"
"NC1=NN=C(O1)C1=CC=CC=C1","1612-76-6","EN300-02557","1052","5-Phenyl-[1,3,4]oxadiazol-2-ylamine","-","A55638","25489863","-","-","243.0 - 245.0","?C","244.0","Celsius"
"NC1=NC(=CS1)C1=C(OC(F)F)C=C(OC(F)F)C=C1","-","EN300-02567","1053","4-(2,4-Bis-difluoromethoxy-phenyl)-thiazol-2-ylamine","-","A55638","25489863","-","-","86.0 - 88.0","?C","87.0","Celsius"
"NC1=CC=C(C=C1)C1=CSC(=N1)N1CCOCC1","-","EN300-02570","1054","4-(2-Morpholin-4-yl-thiazol-4-yl)-phenylamine","-","A55638","25489863","-","-","174.0 - 176.0","?C","175.0","Celsius"
"CC(NC1=NC=CC=C1)C1=CC=CO1","-","EN300-02595","1055","(1-Furan-2-yl-ethyl)-pyridin-2-yl-amine","-","A55638","25489863","-","-","136.0 - 138.0","?C","137.0","Celsius"
"CC1=C(OCC2=CSC(N)=N2)C=CC=C1","-","EN300-02608","1056","4-[(2-methylphenoxy)methyl]-1,3-thiazol-2-amine","-","A55638","25489863","-","-","95.0 - 97.0","?C","96.0","Celsius"
"CCOC(=O)C1=CC(N)=C(C=C1)N1C=CN=C1","-","EN300-02614","1057","3-Amino-4-imidazol-1-yl-benzoic acid ethyl ester","-","A55638","25489863","-","-","89.0 - 93.0","?C","91.0","Celsius"
"COC1=CC(NCC2=NN=C3CCCCCN23)=CC=C1","-","EN300-02616","1058","(3-Methoxy-phenyl)-(6,7,8,9-tetrahydro-5H-[1,2,4]triazolo[4,3-a]azepin-3-ylmethyl)-amine","-","A55638","25489863","-","-","176.0 - 180.0","?C","178.0","Celsius"
"NC1=NN=C(O1)C1=CC=C(F)C=C1","7659-07-6","EN300-02620","1059","5-(4-Fluoro-phenyl)-[1,3,4]oxadiazol-2-ylamine","-","A55638","25489863","-","-","246.0 - 248.0","?C","247.0","Celsius"
"NC(=O)C1=C(N)C2=C(S1)N=C(C=C2C1=CC=CC=C1)C1CC1","-","EN300-02622","1060","3-amino-6-cyclopropyl-4-phenylthieno[2,3-b]pyridine-2-carboxamide","-","A55638","25489863","-","-","185.0 - 187.0","?C","186.0","Celsius"
"NC1=NN=C(N1)SCC1=CC=CC=C1","3922-47-2","EN300-02624","1061","5-Benzylsulfanyl-4H-[1,2,4]triazol-3-ylamine","-","A55638","25489863","-","-","99.0 - 101.0","?C","100.0","Celsius"
"NC1=NN=C(N1)C1=CC=NC=C1","3652-17-3","EN300-02625","1062","5-Pyridin-4-yl-4H-[1,2,4]triazol-3-ylamine","-","A55638","25489863","-","-","271.0 - 273.0","?C","272.0","Celsius"
"NC1=NN=C(N1)C1=CN=CC=C1","35607-27-3","EN300-02626","1063","5-Pyridin-3-yl-4H-[1,2,4]triazol-3-ylamine","-","A55638","25489863","-","-","207.0 - 209.0","?C","208.0","Celsius"
"NC1=NN=C(N1)C1=CC=CS1","4922-99-0","EN300-02628","1064","5-thien-2-yl-4H-1,2,4-triazol-3-amine","-","A55638","25489863","-","-","202.0 - 204.0","?C","203.0","Celsius"
"NC1=CC=C(C=C1)C1=CN2C=CC=CC2=N1","139705-74-1","EN300-02632","1065","4-Imidazo[1,2-a]pyridin-2-yl-phenylamine","-","A55638","25489863","-","-","118.0 - 120.0","?C","119.0","Celsius"
"CCOC1=CC=C(C=C1)C1=C(C)SC(N)=N1","-","EN300-02633","1066","4-(4-Ethoxy-phenyl)-5-methyl-thiazol-2-ylamine","-","A55638","25489863","-","-","98.0 - 100.0","?C","99.0","Celsius"
"COC1=CC=C(C=C1)C1=C(C)SC(N)=N1","105512-88-7","EN300-02634","1067","4-(4-Methoxy-phenyl)-5-methyl-thiazol-2-ylamine","-","A55638","25489863","-","-","120.0 - 122.0","?C","121.0","Celsius"
"NC1=C(C(=O)CN1NC(=O)C1=CC=CS1)C1=NC2=C(N1)C=CC=C2","-","EN300-02716","1069","Thiophene-2-carboxylic acid [5-amino-4-(1H-benzoimidazol-2-yl)-3-oxo-2,3-dihydro-pyrrol-1-yl]-amide","-","A55638","25489863","-","-","270.0 - 272.0","?C","271.0","Celsius"
"CCN(CC)S(=O)(=O)C1=CC(N)=C(N)C=C1","49804-28-6","EN300-02743","1071","3,4-Diamino-N,N-diethyl-benzenesulfonamide","-","A55638","25489863","-","-","124.0 - 126.0","?C","125.0","Celsius"
"COC1=C(N)C=C(C=C1)S(=O)(=O)NC1=C(Cl)C=CC=C1","-","EN300-02745","1072","3-Amino-N-(2-chloro-phenyl)-4-methoxy-benzenesulfonamide","-","A55638","25489863","-","-","93.0 - 95.0","?C","94.0","Celsius"
"C1CC(CCN1)C1=NC2=C(S1)C=CC=C2","51784-73-7","EN300-02748","1073","2-Piperidin-4-yl-benzothiazole","-","A55638","25489863","-","-","127.0 - 129.0","?C","128.0","Celsius"
"CCOC1=CC=C(NC2=NC3=C(S2)C=CC=C3)C=C1","6634-87-3","EN300-02751","1075","Benzothiazol-2-yl-(4-ethoxy-phenyl)-amine","-","A55638","25489863","-","-","169.0 - 171.0","?C","170.0","Celsius"
"COC1=C(NC2=NCCCS2)C=CC=C1","27779-18-6","EN300-02752","1076","(5,6-Dihydro-4H-[1,3]thiazin-2-yl)-(2-methoxy-phenyl)-amine","-","A55638","25489863","-","-","83.0 - 85.0","?C","84.0","Celsius"
"NC1=NC(=CS1)C1=CC=C(Cl)S1","-","EN300-02768","1077","4-(5-Chloro-thiophen-2-yl)-thiazol-2-ylamine","-","A55638","25489863","-","-","98.0 - 100.0","?C","99.0","Celsius"
"C(NC1=NC2=C(S1)C=CC=C2)C1CCCO1","-","EN300-02772","1078","Benzothiazol-2-yl-(tetrahydro-furan-2-ylmethyl)-amine","-","A55638","25489863","-","-","130.0 - 132.0","?C","131.0","Celsius"
"CC1=C(NC2=NC(C)(C)CS2)C=CC=C1","-","EN300-02774","1079","(4,4-Dimethyl-4,5-dihydro-thiazol-2-yl)-o-tolyl-amine","-","A55638","25489863","-","-","159.0 - 161.0","?C","160.0","Celsius"
"CCOC(=O)C1=C(N)SC(C)=C1CC","82546-91-6","EN300-02780","1080","2-Amino-4-ethyl-5-methyl-thiophene-3-carboxylic acid ethyl ester","-","A55638","25489863","-","-","45.0 - 47.0","?C","46.0","Celsius"
"CC1=CC=C(NC2=NC(C)(C)CS2)C=C1","-","EN300-02782","1081","(4,4-Dimethyl-4,5-dihydro-thiazol-2-yl)-p-tolyl-amine","-","A55638","25489863","-","-","164.0 - 166.0","?C","165.0","Celsius"
"COCCN1C(=O)NC(=O)C=C1N","56075-76-4","EN300-02786","1082","6-Amino-1-(2-methoxy-ethyl)-1H-pyrimidine-2,4-dione","-","A55638","25489863","-","-","90.0 - 92.0","?C","91.0","Celsius"
"CC1=CC=C(C=C1)C1=C(N=C(N)S1)C1=CC=C(C)C=C1","102026-45-9","EN300-02788","1083","4,5-Di-p-tolyl-thiazol-2-ylamine","-","A55638","25489863","-","-","153.0 - 155.0","?C","154.0","Celsius"
"COC1=C(OC)C=C(NC2=NCCS2)C=C1","-","EN300-02807","1084","(4,5-Dihydro-thiazol-2-yl)-(3,4-dimethoxy-phenyl)-amine","-","A55638","25489863","-","-","88.0 - 90.0","?C","89.0","Celsius"
"COC1=CC(NC2=NC(C)(C)CS2)=CC=C1","-","EN300-02809","1085","(4,4-Dimethyl-4,5-dihydro-thiazol-2-yl)-(3-methoxy-phenyl)-amine","-","A55638","25489863","-","-","105.0 - 107.0","?C","106.0","Celsius"
"CCC1CSC(NC2=CC(Cl)=C(Cl)C=C2)=N1","-","EN300-02813","1086","(3,4-Dichloro-phenyl)-(4-ethyl-4,5-dihydro-thiazol-2-yl)-amine","-","A55638","25489863","-","-","107.0 - 109.0","?C","108.0","Celsius"
"NC1=C(C#N)C2=C(CCCCC2)S1","23917-22-8","EN300-02824","1088","2-Amino-5,6,7,8-tetrahydro-4H-cyclohepta[b]thiophene-3-carbonitrile","-","A55638","25489863","-","-","103.0 - 115.0","?C","109.0","Celsius"
"COCCN1C(=O)NC(=O)C(NCC2=CC=CC=C2)=C1N","-","EN300-02826","1089","6-Amino-5-benzylamino-1-(2-methoxy-ethyl)-1H-pyrimidine-2,4-dione","-","A55638","25489863","-","-","151.0 - 153.0","?C","152.0","Celsius"
"CCCCN1C(N)=CC(=O)NC1=O","53681-49-5","EN300-02827","1090","6-Amino-1-butyl-1H-pyrimidine-2,4-dione","-","A55638","25489863","-","-","238.0 - 240.0","?C","239.0","Celsius"
"CCOC(=O)C1=C(N)SC2=C1CCC(CC)C2","-","EN300-02832","1092","2-Amino-6-ethyl-4,5,6,7-tetrahydro-benzo[b]thiophene-3-carboxylic acid ethyl ester","-","A55638","25489863","-","-","88.0 - 90.0","?C","89.0","Celsius"
"COCCCNC1=C(N)N(CC2=CC=CC=C2)C(=O)NC1=O","-","EN300-02836","1093","6-Amino-1-benzyl-5-(3-methoxy-propylamino)-1H-pyrimidine-2,4-dione","-","A55638","25489863","-","-","148.0 - 150.0","?C","149.0","Celsius"
"CCCCNC1=C(N)N(CC2=CC=CC=C2)C(=O)NC1=O","-","EN300-02837","1094","6-Amino-1-benzyl-5-butylamino-1H-pyrimidine-2,4-dione","-","A55638","25489863","-","-","117.0 - 119.0","?C","118.0","Celsius"
"CC(C)CCNC1=C(N)N(CC2=CC=CC=C2)C(=O)NC1=O","-","EN300-02838","1095","6-Amino-1-benzyl-5-(3-methyl-butylamino)-1H-pyrimidine-2,4-dione","-","A55638","25489863","-","-","203.0 - 205.0","?C","204.0","Celsius"
"COCCNC1=C(N)N(CC2=CC=CC=C2)C(=O)NC1=O","-","EN300-02840","1096","6-Amino-1-benzyl-5-(2-methoxy-ethylamino)-1H-pyrimidine-2,4-dione","-","A55638","25489863","-","-","209.0 - 211.0","?C","210.0","Celsius"
"CC(C)CC1=NN=C(N)S1","52057-89-3","EN300-02841","1097","5-Isobutyl-[1,3,4]thiadiazol-2-ylamine","-","A55638","25489863","-","-","239.0 - 241.0","?C","240.0","Celsius"
"NC(=O)C1=C(N)SC2=C1CCCCC2","40106-12-5","EN300-02845","1099","2-Amino-5,6,7,8-tetrahydro-4H-cyclohepta[b]thiophene-3-carboxylic acid amide","-","A55638","25489863","-","-","195.0 - 199.0","?C","197.0","Celsius"
"CCOC(=O)C1=C(N)SC2=C1CCN(CC)C2","-","EN300-02846","1100","2-Amino-6-ethyl-4,5,6,7-tetrahydro-thieno[2,3-c]pyridine-3-carboxylic acid ethyl ester","-","A55638","25489863","-","-","83.0 - 87.0","?C","85.0","Celsius"
"NC1=C(N)C=C(C=C1)S(=O)(=O)NC1=CC=C(Cl)C=C1","-","EN300-02860","1102","3,4-Diamino-N-(4-chloro-phenyl)-benzenesulfonamide","-","A55638","25489863","-","-","146.0 - 150.0","?C","148.0","Celsius"
"CCCNC1=C(N)N(CC2=CC=CC=C2)C(=O)NC1=O","-","EN300-02863","1104","6-Amino-1-benzyl-5-propylamino-1H-pyrimidine-2,4-dione","-","A55638","25489863","-","-","210.0 - 212.0","?C","211.0","Celsius"
"CC(C)NC1=NC=CC=C1","15513-18-5","EN300-02870","1105","Isopropyl-pyridin-2-yl-amine","-","A55638","25489863","-","-","41.0 - 43.0","?C","42.0","Celsius"
"CC(C)CNC1=C(N)N(CC2=CC=CC=C2)C(=O)NC1=O","-","EN300-02871","1106","6-Amino-1-benzyl-5-isobutylamino-1H-pyrimidine-2,4-dione","-","A55638","25489863","-","-","211.0 - 213.0","?C","212.0","Celsius"
"CC1=CC2=C(C=C1)N=C(NCC1=CC=CC=C1)S2","56406-14-5","EN300-02872","1107","Benzyl-(6-methyl-benzothiazol-2-yl)-amine","-","A55638","25489863","-","-","175.0 - 177.0","?C","176.0","Celsius"
"C1CCC(CC1)NC1=NCCCS1","99977-36-3","EN300-02874","1108","Cyclohexyl-(5,6-dihydro-4H-[1,3]thiazin-2-yl)-amine","-","A55638","25489863","-","-","112.0 - 114.0","?C","113.0","Celsius"
"CC1CN=C(NC2=CC(=CC=C2)S(=O)(=O)N(C)C)S1","-","EN300-02876","1109","N,N-Dimethyl-3-(5-methyl-4,5-dihydro-thiazol-2-ylamino)-benzenesulfonamide","-","A55638","25489863","-","-","111.0 - 113.0","?C","112.0","Celsius"
"NC1=C(OCC2=CC=CC=C2)C=C(C(Cl)=C1)[N+]([O-])=O","-","EN300-02879","1110","2-Benzyloxy-5-chloro-4-nitro-phenylamine","-","A55638","25489863","-","-","135.0 - 137.0","?C","136.0","Celsius"
"NC1=C(NCC2CCCO2)C(=O)NC(=O)N1CC1=CC=CC=C1","-","EN300-02880","1111","6-Amino-1-benzyl-5-[(tetrahydro-furan-2-ylmethyl)-amino]-1H-pyrimidine-2,4-dione","-","A55638","25489863","-","-","221.0 - 223.0","?C","222.0","Celsius"
"NC1=NN=C(SCC2=CC=C(F)C=C2)S1","-","EN300-02883","1112","5-(4-Fluoro-benzylsulfanyl)-[1,3,4]thiadiazol-2-ylamine","-","A55638","25489863","-","-","145.0 - 147.0","?C","146.0","Celsius"
"NC1=NN=C(SCC2=CC=CC=C2)S1","25660-71-3","EN300-02885","1113","5-Benzylsulfanyl-[1,3,4]thiadiazol-2-ylamine","-","A55638","25489863","-","-","159.0 - 161.0","?C","160.0","Celsius"
"CC1=C(NC2CCCCC2)N=CC=C1","-","EN300-02889","1114","Cyclohexyl-(3-methyl-pyridin-2-yl)-amine","-","A55638","25489863","-","-","81.0 - 83.0","?C","82.0","Celsius"
"CNC1=C(N)N(CC2=CC=CC=C2)C(=O)NC1=O","72816-88-7","EN300-02890","1115","6-Amino-1-benzyl-5-methylamino-1H-pyrimidine-2,4-dione","-","A55638","25489863","-","-","219.0 - 221.0","?C","220.0","Celsius"
"COC1=C(NC2=NCC(C)S2)C=CC=C1","-","EN300-02893","1116","(2-Methoxy-phenyl)-(5-methyl-4,5-dihydro-thiazol-2-yl)-amine","-","A55638","25489863","-","-","92.0 - 97.0","?C","94.5","Celsius"
"NC1=C2C3=C(CCCC3)SC2=NC=N1","4994-88-1","EN300-02901","1117","5,6,7,8-Tetrahydro-benzo[4,5]thieno[2,3-d]pyrimidin-4-ylamine","-","A55638","25489863","-","-","239.0 - 241.0","?C","240.0","Celsius"
"CN1C(=O)C=C(N)N(CC2=CC=CC=C2)C1=O","53681-51-9","EN300-02902","1118","6-Amino-1-benzyl-3-methyl-1H-pyrimidine-2,4-dione","-","A55638","25489863","-","-","95.0 - 99.0","?C","97.0","Celsius"
"CC1=CC(NC2CCCCC2)=NC=C1","-","EN300-02904","1119","Cyclohexyl-(4-methyl-pyridin-2-yl)-amine","-","A55638","25489863","-","-","75.0 - 77.0","?C","76.0","Celsius"
"NC1=NC(=C(S1)C1=C(Cl)C=CC=C1)C1=C(Cl)C=CC=C1","-","EN300-02905","1120","4,5-Bis-(2-chloro-phenyl)-thiazol-2-ylamine","-","A55638","25489863","-","-","198.0 - 200.0","?C","199.0","Celsius"
"COC1=CC=C(C=C1)C1=C(N=C(N)S1)C1=CC=C(OC)C=C1","24827-38-1","EN300-02906","1121","4,5-Bis-(4-methoxy-phenyl)-thiazol-2-ylamine","-","A55638","25489863","-","-","207.0 - 209.0","?C","208.0","Celsius"
"CC1=CSC(NC2=CC=CC=C2)=N1","90916-46-4","EN300-02907","1122","(4-Methyl-thiazol-2-yl)-phenyl-amine","-","A55638","25489863","-","-","74.0 - 76.0","?C","75.0","Celsius"
"CN1N(C(=O)C(NC(=O)CSC2=NN=C(N)S2)=C1C)C1=CC=CC=C1","-","EN300-02911","1123","2-(5-Amino-[1,3,4]thiadiazol-2-ylsulfanyl)-N-(1,5-dimethyl-3-oxo-2-phenyl-2,3-dihydro-1H-pyrazol-4-yl)-acetamide","-","A55638","25489863","-","-","142.0 - 144.0","?C","143.0","Celsius"
"CC(SC1=NN=C(N)S1)C(=O)NC1=C(C)N(C)N(C1=O)C1=CC=CC=C1","-","EN300-02912","1124","2-(5-Amino-[1,3,4]thiadiazol-2-ylsulfanyl)-N-(1,5-dimethyl-3-oxo-2-phenyl-2,3-dihydro-1H-pyrazol-4-yl)-propionamide","-","A55638","25489863","-","-","143.0 - 147.0","?C","145.0","Celsius"
"CCCCC1=CC=C(NC2=NCCCS2)C=C1","-","EN300-02916","1125","(4-Butyl-phenyl)-(5,6-dihydro-4H-[1,3]thiazin-2-yl)-amine","-","A55638","25489863","-","-","70.0 - 72.0","?C","71.0","Celsius"
"CC1=C(C=CC=C1)C1=NNN=N1","51449-86-6","EN300-02918","1126","5-o-tolyl-2h-tetrazole","-","A55638","25489863","-","-","153.0 - 155.0","?C","154.0","Celsius"
"CCCCC1=NC2=C(N1)C=CC=C2","5851-44-5","EN300-02920","1127","2-Butyl-1H-benzoimidazole","-","A55638","25489863","-","-","149.0 - 151.0","?C","150.0","Celsius"
"O=C1NN=C(N2CCNCC2)C(=O)N1","-","EN300-02923","1128","6-Piperazin-1-yl-2H-[1,2,4]triazine-3,5-dione","-","A55638","25489863","-","-","150.0 - 152.0","?C","151.0","Celsius"
"NC1=C(OC2=CC=C(Br)C=C2)C=CC(=C1)C(F)(F)F","-","EN300-02927","1129","2-(4-Bromo-phenoxy)-5-trifluoromethyl-phenylamine","-","A55638","25489863","-","-","19.0 - 21.0","?C","20.0","Celsius"
"CC1=C(C)C(C#N)=C(N)S1","4651-94-9","EN300-02935","1130","2-Amino-4,5-dimethyl-thiophene-3-carbonitrile","-","A55638","25489863","-","-","134.0 - 136.0","?C","135.0","Celsius"
"CCOC(=O)C1=C(N)SC(=C1)C1=CC=CC=C1","4815-34-3","EN300-02938","1131","2-Amino-5-phenyl-thiophene-3-carboxylic acid ethyl ester","-","A55638","25489863","-","-","118.0 - 120.0","?C","119.0","Celsius"
"FC1=CC=C(C=C1)C1=CSC(NC2=CC=CC=C2)=N1","1427-09-4","EN300-02939","1132","[4-(4-Fluoro-phenyl)-thiazol-2-yl]-phenyl-amine","-","A55638","25489863","-","-","91.0 - 93.0","?C","92.0","Celsius"
"COCCOC1=C(N)C=C(C=C1)C(F)(F)F","-","EN300-02941","1134","2-(2-Methoxy-ethoxy)-5-trifluoromethyl-phenylamine","-","A55638","25489863","-","-","43.0 - 47.0","?C","45.0","Celsius"
"CC1=C(C)C2=C(S1)N=CN=C2N","4994-89-2","EN300-02943","1135","5,6-Dimethyl-thieno[2,3-d]pyrimidin-4-ylamine","-","A55638","25489863","-","-","257.0 - 259.0","?C","258.0","Celsius"
"CCOC1=CC=C(OC2=C(N)C=C(C=C2)C(F)(F)F)C=C1","-","EN300-02946","1136","2-(4-Ethoxy-phenoxy)-5-trifluoromethyl-phenylamine","-","A55638","25489863","-","-","45.0 - 47.0","?C","46.0","Celsius"
"CCOC(=O)C1=C(C)C(C#N)=C(N)S1","23903-46-0","EN300-02949","1137","5-Amino-4-cyano-3-methyl-thiophene-2-carboxylic acid ethyl ester","-","A55638","25489863","-","-","212.0 - 214.0","?C","213.0","Celsius"
"CCOC(=O)C1=C(N)SC(CC)=C1","4507-13-5","EN300-02953","1138","2-Amino-5-ethyl-thiophene-3-carboxylic acid ethyl ester","-","A55638","25489863","-","-","69.0 - 71.0","?C","70.0","Celsius"
"CSC1=NC(O)=CC(N)=N1","1074-41-5","EN300-02957","1139","6-Amino-2-methylsulfanyl-pyrimidin-4-ol","-","A55638","25489863","-","-","279.0 - 281.0","?C","280.0","Celsius"
"N1N=NC(=N1)C1=CC=CC=C1","18039-42-4","EN300-02959","1140","5-Phenyl-2H-tetrazole","-","A55638","25489863","-","-","216.0 - 218.0","?C","217.0","Celsius"
"CC1=C(C2=CSC(N)=N2)C2=C(N1)C=CC=C2","50825-19-9","EN300-02961","1141","4-(2-Methyl-1H-indol-3-yl)-thiazol-2-ylamine","-","A55638","25489863","-","-","168.0 - 170.0","?C","169.0","Celsius"
"CCOC=C1C(=O)N(C(=O)C2=C1C=CC=C2)C1=CC(Cl)=CC=C1","-","EN300-02964","1142","2-(3-Chloro-phenyl)-4-ethoxymethylene-4H-isoquinoline-1,3-dione","-","A55638","25489863","-","-","205.0 - 209.0","?C","207.0","Celsius"
"CC(O)CNC1=NC2=C(N1)C=CC=C2","-","EN300-02967","1143","1-(1H-Benzoimidazol-2-ylamino)-propan-2-ol","-","A55638","25489863","-","-","186.0 - 188.0","?C","187.0","Celsius"
"CCN1C(=O)C=C(N)N(CC2=CC=CC=C2)C1=O","-","EN300-02968","1144","6-Amino-1-benzyl-3-ethyl-1H-pyrimidine-2,4-dione","-","A55638","25489863","-","-","106.0 - 108.0","?C","107.0","Celsius"
"CCC(C)C1=CC=C(C=C1)C1=CSC(N)=N1","351982-40-6","EN300-02971","1145","4-(4-sec-Butyl-phenyl)-thiazol-2-ylamine","-","A55638","25489863","-","-","77.0 - 79.0","?C","78.0","Celsius"
"NC1=NN=C(S1)C12CC3CC(CC(C3)C1)C2","26526-57-8","EN300-02972","1146","5-Adamantan-1-yl-[1,3,4]thiadiazol-2-ylamine","-","A55638","25489863","-","-","197.0 - 199.0","?C","198.0","Celsius"
"COC1=C(NC(=O)C2=C(O)C=C3C=CC=CC3=C2)C=C(C)C=C1","-","EN300-02979","1147","3-Hydroxy-naphthalene-2-carboxylic acid (2-methoxy-5-methyl-phenyl)-amide","-","A55638","25489863","-","-","178.0 - 180.0","?C","179.0","Celsius"
"COC1=CC(OC)=C(Cl)C=C1NC(=O)C1=C(O)C=C2C=CC=CC2=C1","92-72-8","EN300-02980","1148","3-Hydroxy-naphthalene-2-carboxylic acid (5-chloro-2,4-dimethoxy-phenyl)-amide","-","A55638","25489863","-","-","199.0 - 201.0","?C","200.0","Celsius"
"OCN1N=NC2=C(C=CC=C2)C1=O","24310-40-5","EN300-02989","1149","3-Hydroxymethyl-3H-benzo[d][1,2,3]triazin-4-one","-","A55638","25489863","-","-","133.0 - 135.0","?C","134.0","Celsius"
"SC1=NN=C2SC3=C(C=CC=C3)N12","6957-85-3","EN300-03004","1150","Benzo[4,5]thiazolo[2,3-c][1,2,4]triazole-3-thiol","-","A55638","25489863","-","-","252.0 - 254.0","?C","253.0","Celsius"
"OCCNC(=O)C1=CC(=CC=C1)S(=O)(=O)N1CCCCC1","-","EN300-03008","1151","N-(2-Hydroxy-ethyl)-3-(piperidine-1-sulfonyl)-benzamide","-","A55638","25489863","-","-","65.0 - 68.0","?C","66.5","Celsius"
"OCC1=CN(N=C1C1=CC=CC=C1)C1=CC=CC=C1","40278-32-8","EN300-03010","1152","(1,3-Diphenyl-1H-pyrazol-4-yl)-methanol","-","A55638","25489863","-","-","91.0 - 93.0","?C","92.0","Celsius"
"CC(C(O)C1=CC=CC=C1)N(C)S(=O)(=O)C1=CC=C(C=C1)[N+]([O-])=O","-","EN300-03011","1153","N-(2-Hydroxy-1-methyl-2-phenyl-ethyl)-N-methyl-4-nitro-benzenesulfonamide","-","A55638","25489863","-","-","132.0 - 134.0","?C","133.0","Celsius"
"OCC1=C(Cl)N=C2C=CC=CN12","-","EN300-03015","1154","(2-Chloro-imidazo[1,2-a]pyridin-3-yl)-methanol","-","A55638","25489863","-","-","177.0 - 179.0","?C","178.0","Celsius"
"OCC1=C(Cl)N=C2SC=CN12","24918-13-6","EN300-03016","1155","(6-Chloro-imidazo[2,1-b]thiazol-5-yl)-methanol","-","A55638","25489863","-","-","174.0 - 176.0","?C","175.0","Celsius"
"SC1=NC(C2=CC=CC=C2)=C(N=N1)C1=CC=CC=C1","37469-24-2","EN300-03027","1156","5,6-Diphenyl-[1,2,4]triazine-3-thiol","-","A55638","25489863","-","-","222.0 - 224.0","?C","223.0","Celsius"
"CC1=C(C)C(NC2=NN=C(S)S2)=CC=C1","-","EN300-03029","1157","5-(2,3-Dimethyl-phenylamino)-[1,3,4]thiadiazole-2-thiol","-","A55638","25489863","-","-","195.0 - 197.0","?C","196.0","Celsius"