"SMILES","CASRN","EXTERNALID","N","NAME","NAME","ARTICLEID","PUBMEDID","PAGE","TABLE","Melting Point {measured}","UNIT {Melting Point}","Melting Point {measured, converted}","UNIT {Melting Point}"
"OC(=O)CCCCNC(=O)OCC1=CC=CC=C1","-","EN300-108081","5418","5-{[(benzyloxy)carbonyl]amino}pentanoic acid","-","A55638","25489863","-","-","104.0 - 106.0","?C","105.0","Celsius"
"COC1=C(N)C=NC=N1","-","EN300-108083","5420","4-methoxypyrimidin-5-amine","-","A55638","25489863","-","-","71.0 - 73.0","?C","72.0","Celsius"
"CN1CCC2=C(C=C(N)C=C2)C1=O","-","EN300-108084","5421","7-amino-2-methyl-1,2,3,4-tetrahydroisoquinolin-1-one","-","A55638","25489863","-","-","127.0 - 129.0","?C","128.0","Celsius"
"ClC1=CC=C(C=C1)C1=NC=C(C=O)C=N1","-","EN300-108085","5422","2-(4-chlorophenyl)pyrimidine-5-carbaldehyde","-","A55638","25489863","-","-","183.0 - 185.0","?C","184.0","Celsius"
"COC1=C(OC)C=C(C=C1)C(=O)NC1=CC=C(C=C1)C(O)=O","-","EN300-108097","5424","4-[(3,4-dimethoxybenzene)amido]benzoic acid","-","A55638","25489863","-","-","259.0 - 261.0","?C","260.0","Celsius"
"COC1=CC=C(NC(=O)C2=CC=C(S2)C(O)=O)C=C1","-","EN300-108099","5425","5-[(4-methoxyphenyl)carbamoyl]thiophene-2-carboxylic acid","-","A55638","25489863","-","-","247.0 - 249.0","?C","248.0","Celsius"
"COCCNC1=C(C=C2C(=O)NC=NC2=C1)[N+]([O-])=O","-","EN300-108116","5426","7-[(2-methoxyethyl)amino]-6-nitro-3,4-dihydroquinazolin-4-one","-","A55638","25489863","-","-","259.0 - 261.0","?C","260.0","Celsius"
"OC(=O)CC#CC1=CC=CC=C1","-","EN300-108144","5428","4-phenylbut-3-ynoic acid","-","A55638","25489863","-","-","71.0 - 73.0","?C","72.0","Celsius"
"OC(=O)C#CC1=CC2=C(OCO2)C=C1","-","EN300-108146","5429","3-(2H-1,3-benzodioxol-5-yl)prop-2-ynoic acid","-","A55638","25489863","-","-","165.0 - 167.0","?C","166.0","Celsius"
"CC1=C(C(Br)=NC=C1)[N+]([O-])=O","-","EN300-108151","5431","2-bromo-4-methyl-3-nitropyridine","-","A55638","25489863","-","-","54.0 - 56.0","?C","55.0","Celsius"
"NC(=O)C1CCCN2C=CN=C12","-","EN300-108153","5432","5H,6H,7H,8H-imidazo[1,2-a]pyridine-8-carboxamide","-","A55638","25489863","-","-","177.0 - 179.0","?C","178.0","Celsius"
"CC(C)(C)OC(=O)N1CC2NCCOC2C1","-","EN300-108154","5433","tert-butyl octahydropyrrolo[3,4-b]morpholine-6-carboxylate","-","A55638","25489863","-","-","54.0 - 56.0","?C","55.0","Celsius"
"OC(=O)CCC1=NN=C(O1)C1CCCC1","-","EN300-108155","5434","3-(5-cyclopentyl-1,3,4-oxadiazol-2-yl)propanoic acid","-","A55638","25489863","-","-","62.0 - 64.0","?C","63.0","Celsius"
"OC(=O)CCCNS(=O)(=O)C1=CC2=C(OCCO2)C=C1","300571-94-2","EN300-10816","5435","4-[(2,3-dihydro-1,4-benzodioxin-6-ylsulfonyl)amino]butanoic acid","-","A55638","25489863","-","-","120.0 - 122.0","?C","121.0","Celsius"
"COC(=O)C1CCN(CC1)C(=O)C1=CC(Cl)=C(Cl)C=C1","-","EN300-108162","5436","methyl 1-[(3,4-dichlorophenyl)carbonyl]piperidine-4-carboxylate","-","A55638","25489863","-","-","103.0 - 105.0","?C","104.0","Celsius"
"NS(=O)(=O)CC1=C(C=CC=C1)[N+]([O-])=O","-","EN300-108163","5437","(2-nitrophenyl)methanesulfonamide","-","A55638","25489863","-","-","131.0 - 133.0","?C","132.0","Celsius"
"OC(=O)C1CCN(CC1)S(=O)(=O)C=CC1=CC=CC=C1","260441-69-8","EN300-10817","5441","1-{[2-phenylvinyl]sulfonyl}piperidine-4-carboxylic acid","-","A55638","25489863","-","-","195.0 - 197.0","?C","196.0","Celsius"
"CC(C)[C@@H](N(C)C)C(O)=O","-","EN300-108172","5443","(2R)-2-(dimethylamino)-3-methylbutanoic acid","-","A55638","25489863","-","-","154.0 - 156.0","?C","155.0","Celsius"
"OC(=O)C1=NOC(=N1)C1=CC=C(F)C=C1","-","EN300-108173","5444","5-(4-fluorophenyl)-1,2,4-oxadiazole-3-carboxylic acid","-","A55638","25489863","-","-","129.0 - 131.0","?C","130.0","Celsius"
"NC1CCN(C1)C(=O)C1CCCCC1","-","EN300-108174","5445","1-cyclohexanecarbonylpyrrolidin-3-amine","-","A55638","25489863","-","-","72.0 - 74.0","?C","73.0","Celsius"
"[O-][N+](=O)C1=CC(Br)=CN=C1","-","EN300-108183","5446","3-bromo-5-nitropyridine","-","A55638","25489863","-","-","99.0 - 101.0","?C","100.0","Celsius"
"OC(=O)C1=CC=C(S1)C1CC1","-","EN300-108215","5447","5-cyclopropylthiophene-2-carboxylic acid","-","A55638","25489863","-","-","111.0 - 113.0","?C","112.0","Celsius"
"OC(=O)CC1SC(NC1=O)=NC1=CC=CC=C1","67309-49-3","EN300-10822","5448","[(2E)-4-oxo-2-(phenylimino)-1,3-thiazolidin-5-yl]acetic acid","-","A55638","25489863","-","-","202.0 - 204.0","?C","203.0","Celsius"
"CC1=CC(C)=C(N1)C(O)=O","-","EN300-108231","5450","3,5-dimethyl-1H-pyrrole-2-carboxylic acid","-","A55638","25489863","-","-","109.0 - 111.0","?C","110.0","Celsius"
"CS(=O)(=O)C1=CC2=C(OCCN2)C=C1","-","EN300-108235","5452","6-methanesulfonyl-3,4-dihydro-2H-1,4-benzoxazine","-","A55638","25489863","-","-","117.0 - 119.0","?C","118.0","Celsius"
"NC(=O)C1=CCCC1","-","EN300-108237","5453","cyclopent-1-ene-1-carboxamide","-","A55638","25489863","-","-","166.0 - 168.0","?C","167.0","Celsius"
"FC(F)(F)C1=CC2=C(OCCN2)C=C1","-","EN300-108238","5454","6-(trifluoromethyl)-3,4-dihydro-2H-1,4-benzoxazine","-","A55638","25489863","-","-","94.0 - 96.0","?C","95.0","Celsius"
"CN1C=CC(=C1)C(O)=O","-","EN300-108239","5455","1-methyl-1H-pyrrole-3-carboxylic acid","-","A55638","25489863","-","-","144.0 - 146.0","?C","145.0","Celsius"
"CC(Cl)C(=O)NCC(F)(F)F","139126-57-1","EN300-10824","5456","2-chloro-N-(2,2,2-trifluoroethyl)propanamide","-","A55638","25489863","-","-","42.0 - 44.0","?C","43.0","Celsius"
"CCC(=O)C1=CC=C(C=C1)C(O)=O","-","EN300-108240","5457","4-propanoylbenzoic acid","-","A55638","25489863","-","-","178.0 - 180.0","?C","179.0","Celsius"
"CN1C(C=O)=NC2=C1C=CC(=C2)C(F)(F)F","-","EN300-108242","5458","1-methyl-5-(trifluoromethyl)-1H-1,3-benzodiazole-2-carbaldehyde","-","A55638","25489863","-","-","111.0 - 113.0","?C","112.0","Celsius"
"CC(C)(C)NCCC(N)=O","-","EN300-108244","5459","3-(tert-butylamino)propanamide","-","A55638","25489863","-","-","95.0 - 97.0","?C","96.0","Celsius"
"CC1=C(SC=N1)C1=NC(CCl)=NO1","-","EN300-108246","5461","3-(chloromethyl)-5-(4-methyl-1,3-thiazol-5-yl)-1,2,4-oxadiazole","-","A55638","25489863","-","-","82.0 - 84.0","?C","83.0","Celsius"
"CCC1=CC(C2=CSC(N)=N2)=C(CC)C=C1","-","EN300-10826","5464","4-(2,5-diethylphenyl)-1,3-thiazol-2-amine","-","A55638","25489863","-","-","66.0 - 68.0","?C","67.0","Celsius"
"CCCOC1=C(OCCC)C=C(CC(O)=O)C=C1","-","EN300-108260","5465","2-(3,4-dipropoxyphenyl)acetic acid","-","A55638","25489863","-","-","59.0 - 61.0","?C","60.0","Celsius"
"NCC1=NC2=C(S1)C=CC=C2","29198-41-2","EN300-10829","5466","1,3-benzothiazol-2-ylmethylamine","-","A55638","25489863","-","-","199.0 - 201.0","?C","200.0","Celsius"
"FC1=C(C=CC=C1)N1C=NN=C1S","52747-56-5","EN300-10830","5467","4-(2-fluorophenyl)-4H-1,2,4-triazole-3-thiol","-","A55638","25489863","-","-","167.0 - 169.0","?C","168.0","Celsius"
"NN1C(S)=NN=C1C1CCCO1","-","EN300-10832","5470","4-amino-5-tetrahydrofuran-2-yl-4H-1,2,4-triazole-3-thiol","-","A55638","25489863","-","-","143.0 - 147.0","?C","145.0","Celsius"
"CN(C)C1=NC2=C(O1)C=CC(=C2)C#N","-","EN300-108324","5472","2-(dimethylamino)-1,3-benzoxazole-5-carbonitrile","-","A55638","25489863","-","-","203.0 - 205.0","?C","204.0","Celsius"
"COC(=O)C1=C(N)C(=CC(C)=C1)[N+]([O-])=O","-","EN300-108338","5474","methyl 2-amino-5-methyl-3-nitrobenzoate","-","A55638","25489863","-","-","106.0 - 108.0","?C","107.0","Celsius"
"OC1=NN=C2N1C=CC=C2Cl","-","EN300-108339","5475","8-chloro-[1,2,4]triazolo[4,3-a]pyridin-3-ol","-","A55638","25489863","-","-","269.0 - 271.0","?C","270.0","Celsius"
"FC(F)C1=NN=C2C=CC(Cl)=NN12","-","EN300-108340","5476","6-chloro-3-(difluoromethyl)-[1,2,4]triazolo[4,3-b]pyridazine","-","A55638","25489863","-","-","101.0 - 103.0","?C","102.0","Celsius"
"CC1=C(N)C(Br)=NC=C1","-","EN300-108343","5477","2-bromo-4-methylpyridin-3-amine","-","A55638","25489863","-","-","76.0 - 78.0","?C","77.0","Celsius"
"CC1=C(F)C=C(Cl)C(=C1)S(Cl)(=O)=O","-","EN300-108346","5478","2-chloro-4-fluoro-5-methylbenzene-1-sulfonyl chloride","-","A55638","25489863","-","-","44.0 - 46.0","?C","45.0","Celsius"
"CSCC1=C(C)SC(=C1)C(O)=O","-","EN300-108347","5479","5-methyl-4-[(methylsulfanyl)methyl]thiophene-2-carboxylic acid","-","A55638","25489863","-","-","135.0 - 137.0","?C","136.0","Celsius"
"NCC1=CC2=C(S1)C=CS2","-","EN300-108353","5480","thieno[3,2-b]thiophen-2-ylmethanamine","-","A55638","25489863","-","-","58.0 - 60.0","?C","59.0","Celsius"
"CCS(=O)(=O)C1=CC(N)=C(C=C1)C(O)=O","-","EN300-108360","5481","2-amino-4-(ethanesulfonyl)benzoic acid","-","A55638","25489863","-","-","184.0 - 186.0","?C","185.0","Celsius"
"CC1=CC(CCC(O)=O)=CC(C)=C1","-","EN300-108381","5482","3-(3,5-dimethylphenyl)propanoic acid","-","A55638","25489863","-","-","49.0 - 51.0","?C","50.0","Celsius"
"BrC1=C2C=CC=CN2C=N1","-","EN300-108394","5483","1-bromoimidazo[1,5-a]pyridine","-","A55638","25489863","-","-","77.0 - 79.0","?C","78.0","Celsius"
"CC1=C2C(=O)C(=O)NC2=C(Cl)C=C1","-","EN300-108399","5484","7-chloro-4-methyl-2,3-dihydro-1H-indole-2,3-dione","-","A55638","25489863","-","-","209.0 - 211.0","?C","210.0","Celsius"
"CN(C)S(=O)(=O)C1=CC(C(O)=O)=C(C)C=C1","-","EN300-10845","5489","5-[(dimethylamino)sulfonyl]-2-methylbenzoic acid","-","A55638","25489863","-","-","173.0 - 175.0","?C","174.0","Celsius"
"CN(C)S(=O)(=O)C1=CC(C(O)=O)=C(Br)C=C1","3285-51-6","EN300-10847","5490","2-bromo-5-[(dimethylamino)sulfonyl]benzoic acid","-","A55638","25489863","-","-","174.0 - 176.0","?C","175.0","Celsius"
"COC1=C(C=C(C=C1)C(O)=O)S(=O)(=O)N(C)C","-","EN300-10848","5491","3-[(dimethylamino)sulfonyl]-4-methoxybenzoic acid","-","A55638","25489863","-","-","149.0 - 151.0","?C","150.0","Celsius"
"CNC(=O)C1=CC(CCC(O)=O)=CC=C1","-","EN300-108490","5492","3-[3-(methylcarbamoyl)phenyl]propanoic acid","-","A55638","25489863","-","-","119.0 - 121.0","?C","120.0","Celsius"
"OC(=O)C1=CC(=CC=C1)S(=O)(=O)NCC=C","-","EN300-10850","5493","3-[(allylamino)sulfonyl]benzoic acid","-","A55638","25489863","-","-","180.0 - 182.0","?C","181.0","Celsius"
"CN(C)C1=NC(Cl)=NC=C1","-","EN300-108503","5494","2-chloro-N,N-dimethylpyrimidin-4-amine","-","A55638","25489863","-","-","79.0 - 81.0","?C","80.0","Celsius"
"CNS(=O)(=O)C1=C(OC)C=CC(=C1)C(O)=O","-","EN300-10852","5495","4-methoxy-3-[(methylamino)sulfonyl]benzoic acid","-","A55638","25489863","-","-","221.0 - 223.0","?C","222.0","Celsius"
"CC(=O)C1=CC(=C(Cl)C=C1)S(Cl)(=O)=O","-","EN300-108521","5496","5-acetyl-2-chlorobenzene-1-sulfonyl chloride","-","A55638","25489863","-","-","111.0 - 113.0","?C","112.0","Celsius"
"COC1=C(C=C(C=C1)C(O)=O)S(N)(=O)=O","20532-06-3","EN300-10853","5497","3-(aminosulfonyl)-4-methoxybenzoic acid","-","A55638","25489863","-","-","283.0 - 285.0","?C","284.0","Celsius"
"[O-][N+](=O)C1=CC=C(CCS(Cl)(=O)=O)C=C1","-","EN300-108533","5498","2-(4-nitrophenyl)ethane-1-sulfonyl chloride","-","A55638","25489863","-","-","89.0 - 91.0","?C","90.0","Celsius"
"CNS(=O)(=O)C1=CC(C(O)=O)=C(Cl)C=C1","68901-09-7","EN300-10855","5499","2-chloro-5-[(methylamino)sulfonyl]benzoic acid","-","A55638","25489863","-","-","171.0 - 173.0","?C","172.0","Celsius"
"[O-][N+](=O)C1=CN=C(S)C=C1","-","EN300-108558","5500","5-nitropyridine-2-thiol","-","A55638","25489863","-","-","169.0 - 171.0","?C","170.0","Celsius"
"CN(C)S(=O)(=O)C1=C(Br)C=CC(=C1)C(O)=O","-","EN300-10856","5501","4-bromo-3-[(dimethylamino)sulfonyl]benzoic acid","-","A55638","25489863","-","-","257.0 - 259.0","?C","258.0","Celsius"
"CN(C)S(=O)(=O)C1=C(Cl)C=CC(=C1)C(O)=O","59210-61-6","EN300-10857","5503","4-chloro-3-[(dimethylamino)sulfonyl]benzoic acid","-","A55638","25489863","-","-","239.0 - 241.0","?C","240.0","Celsius"
"CC(C)(C)NS(=O)(=O)C1=CC(=CC=C1)C(O)=O","-","EN300-10858","5505","3-[(tert-butylamino)sulfonyl]benzoic acid","-","A55638","25489863","-","-","145.0 - 147.0","?C","146.0","Celsius"
"CCNS(=O)(=O)C1=CC(=CC=C1)C(O)=O","7326-74-1","EN300-10859","5506","3-[(ethylamino)sulfonyl]benzoic acid","-","A55638","25489863","-","-","199.0 - 201.0","?C","200.0","Celsius"
"[O-][N+](=O)C1=C2OCCC(=O)C2=CC(Br)=C1","-","EN300-108591","5507","6-bromo-8-nitro-3,4-dihydro-2H-1-benzopyran-4-one","-","A55638","25489863","-","-","104.0 - 106.0","?C","105.0","Celsius"
"CC1=CC(Cl)=C(CC(O)=O)C=C1","-","EN300-108600","5509","2-(2-chloro-4-methylphenyl)acetic acid","-","A55638","25489863","-","-","129.0 - 131.0","?C","130.0","Celsius"
"CC(C)N1C(=O)NC(=O)C1=O","40408-39-7","EN300-10861","5510","1-isopropylimidazolidine-2,4,5-trione","-","A55638","25489863","-","-","92.0 - 96.0","?C","94.0","Celsius"
"CN(C)S(=O)(=O)C1=CC(C(O)=O)=C(F)C=C1","-","EN300-10862","5511","5-[(dimethylamino)sulfonyl]-2-fluorobenzoic acid","-","A55638","25489863","-","-","163.0 - 165.0","?C","164.0","Celsius"
"CCC(C)(C)C1=CC=C(C=C1)C(O)=O","-","EN300-108626","5512","4-(2-methylbutan-2-yl)benzoic acid","-","A55638","25489863","-","-","103.0 - 105.0","?C","104.0","Celsius"
"CC(C)NS(=O)(=O)C1=CC=C(C=C1)C(O)=O","10252-66-1","EN300-10863","5513","4-[(isopropylamino)sulfonyl]benzoic acid","-","A55638","25489863","-","-","225.0 - 227.0","?C","226.0","Celsius"
"OC(=O)C1=CC(=CC=C1)S(=O)(=O)NCC1=CC=CO1","-","EN300-10864","5514","3-{[(2-furylmethyl)amino]sulfonyl}benzoic acid","-","A55638","25489863","-","-","190.0 - 192.0","?C","191.0","Celsius"
"ClS(=O)(=O)C1=CC=C(C=C1)C1CCCCC1","56354-57-5","EN300-10865","5515","4-cyclohexylbenzenesulfonyl chloride","-","A55638","25489863","-","-","49.0 - 51.0","?C","50.0","Celsius"
"SC1=CC2=C(OCCCO2)C=C1","-","EN300-10866","5517","3,4-dihydro-2H-1,5-benzodioxepine-7-thiol","-","A55638","25489863","-","-","41.0 - 43.0","?C","42.0","Celsius"
"CN1N=CN=C1N","-","EN300-108670","5518","1-methyl-1H-1,2,4-triazol-5-amine","-","A55638","25489863","-","-","180.0 - 182.0","?C","181.0","Celsius"
"OC(=O)C1=CC(=CC=C1)S(=O)(=O)NCC1CCCO1","-","EN300-10868","5519","3-{[(tetrahydrofuran-2-ylmethyl)amino]sulfonyl}benzoic acid","-","A55638","25489863","-","-","157.0 - 161.0","?C","159.0","Celsius"
"O=S(=O)(N1CCNCC1)C1=C2N=S=NC2=CC=C1","-","EN300-10869","5520","7-(piperazin-1-ylsulfonyl)-2,1,3-benzothiadiazol","-","A55638","25489863","-","-","178.0 - 183.0","?C","180.0","Celsius"
"CC(C)(C)NS(=O)(=O)C1=CC=C(C=C1)C(O)=O","99987-05-0","EN300-10872","5521","4-[(tert-butylamino)sulfonyl]benzoic acid","-","A55638","25489863","-","-","181.0 - 185.0","?C","183.0","Celsius"
"NC1=CC=C(NS(=O)(=O)C2=CC3=C(OCCO3)C=C2)C=C1","-","EN300-10875","5522","N-(4-aminophenyl)-2,3-dihydro-1,4-benzodioxine-6-sulfonamide","-","A55638","25489863","-","-","176.0 - 178.0","?C","177.0","Celsius"
"OC(=O)CNS(=O)(=O)CC1=CC=CC=C1","6966-44-5","EN300-10876","5523","[(benzylsulfonyl)amino]acetic acid","-","A55638","25489863","-","-","153.0 - 155.0","?C","154.0","Celsius"
"O=CC1=CC=C(S1)N1CCNCC1","-","EN300-10879","5524","5-piperazin-1-ylthiophene-2-carbaldehyde","-","A55638","25489863","-","-","59.0 - 63.0","?C","61.0","Celsius"
"ClCC(=O)N1CCN(CC1)C(=O)C1COC2=C(O1)C=CC=C2","-","EN300-10880","5525","1-(chloroacetyl)-4-(2,3-dihydro-1,4-benzodioxin-2-ylcarbonyl)piperazine","-","A55638","25489863","-","-","199.0 - 201.0","?C","200.0","Celsius"
"COC1=C(C)C=CC(=C1)C1=NOC(CCl)=N1","-","EN300-108813","5526","5-(chloromethyl)-3-(3-methoxy-4-methylphenyl)-1,2,4-oxadiazole","-","A55638","25489863","-","-","73.0 - 75.0","?C","74.0","Celsius"
"CSC1=CC=C(C=C1)C(=O)CCl","-","EN300-10883","5527","2-chloro-1-[4-(methylthio)phenyl]ethanone","-","A55638","25489863","-","-","72.0 - 74.0","?C","73.0","Celsius"
"OC1=CC2=C(C=C1)N=CN2","-","EN300-108831","5528","1H-1,3-benzodiazol-6-ol","-","A55638","25489863","-","-","215.0 - 217.0","?C","216.0","Celsius"
"CCC1=CNC(S)=N1","-","EN300-108834","5529","4-ethyl-1H-imidazole-2-thiol","-","A55638","25489863","-","-","163.0 - 165.0","?C","164.0","Celsius"
"CC(C)(C)C1=CN=C(S)O1","-","EN300-108842","5530","5-tert-butyl-1,3-oxazole-2-thiol","-","A55638","25489863","-","-","131.0 - 133.0","?C","132.0","Celsius"
"BrC1=C(N=C2C=CC=CC2=C1)C#N","-","EN300-108847","5531","3-bromoquinoline-2-carbonitrile","-","A55638","25489863","-","-","139.0 - 141.0","?C","140.0","Celsius"
"CCN(CC)S(=O)(=O)C1=CN(CC(O)=O)C(=O)C=C1","-","EN300-10885","5532","[5-[(diethylamino)sulfonyl]-2-oxopyridin-1(2H)-yl]acetic acid","-","A55638","25489863","-","-","182.0 - 189.0","?C","186.0","Celsius"
"NC1=CC=C(CCCC(O)=O)C=C1","-","EN300-108862","5535","4-(4-aminophenyl)butanoic acid","-","A55638","25489863","-","-","121.0 - 124.0","?C","122.0","Celsius"
"CC(OC1=CC=C(C=C1)C#N)C(O)=O","-","EN300-10887","5536","2-(4-cyanophenoxy)propanoic acid","-","A55638","25489863","-","-","158.0 - 160.0","?C","159.0","Celsius"
"NC1=CC(=CC=C1)C1=CN(CC2=CC=CC=C2)N=N1","-","EN300-108871","5537","3-(1-benzyl-1H-1,2,3-triazol-4-yl)aniline","-","A55638","25489863","-","-","139.0 - 141.0","?C","140.0","Celsius"
"CC(C)(C)OC(=O)NC(C(O)=O)C(C)(C)C","-","EN300-108892","5538","2-{[(tert-butoxy)carbonyl]amino}-3,3-dimethylbutanoic acid","-","A55638","25489863","-","-","117.0 - 119.0","?C","118.0","Celsius"
"OC(=O)C1=CC(=CC=C1)N1C(=O)C=CC1=O","17057-07-7","EN300-10891","5539","3-(2,5-Dioxo-2,5-dihydro-1H-pyrrol-1-yl)benzoic acid","-","A55638","25489863","-","-","231.0 - 233.0","?C","232.0","Celsius"
"O=CC1=C(OCC(=O)N2CCCC2)C=CC=C1","-","EN300-10892","5540","2-(2-oxo-2-pyrrolidin-1-ylethoxy)benzaldehyde","-","A55638","25489863","-","-","112.0 - 114.0","?C","113.0","Celsius"
"CC1=CC2=C(O1)C=CN=C2Cl","-","EN300-108928","5541","4-chloro-2-methylfuro[3,2-c]pyridine","-","A55638","25489863","-","-","38.0 - 40.0","?C","39.0","Celsius"
"CN(C)C1=NC(Cl)=NC(C)=N1","-","EN300-108938","5543","4-chloro-N,N,6-trimethyl-1,3,5-triazin-2-amine","-","A55638","25489863","-","-","81.0 - 83.0","?C","82.0","Celsius"
"COC1=C(O)C(Cl)=CC(=C1)C#N","5485-88-1","EN300-10894","5544","3-chloro-4-hydroxy-5-methoxybenzonitrile","-","A55638","25489863","-","-","141.0 - 143.0","?C","142.0","Celsius"
"OC(CC1COCCN1)C1=CC=CC=C1","-","EN300-108941","5545","2-(morpholin-3-yl)-1-phenylethan-1-ol","-","A55638","25489863","-","-","74.0 - 76.0","?C","75.0","Celsius"
"OC1=C(C=O)C(Cl)=C(C=C1)[N+]([O-])=O","-","EN300-108947","5546","2-chloro-6-hydroxy-3-nitrobenzaldehyde","-","A55638","25489863","-","-","118.0 - 120.0","?C","119.0","Celsius"
"ClCC(=O)NCCC#N","17756-81-9","EN300-10895","5547","2-Chloro-N-(2-cyanoethyl)acetamide","-","A55638","25489863","-","-","96.0 - 98.0","?C","97.0","Celsius"
"COC(=O)CN1N=C2C=CC(Cl)=NN2C1=O","-","EN300-108954","5548","methyl 2-{6-chloro-3-oxo-2H,3H-[1,2,4]triazolo[4,3-b]pyridazin-2-yl}acetate","-","A55638","25489863","-","-","158.0 - 160.0","?C","159.0","Celsius"
"CC(C)(C)C1=CC=C(S1)S(N)(=O)=O","-","EN300-108959","5549","5-tert-butylthiophene-2-sulfonamide","-","A55638","25489863","-","-","80.0 - 82.0","?C","81.0","Celsius"
"O=C=NC1=CC2=C(OCO2)C=C1","-","EN300-108964","5550","5-isocyanato-2H-1,3-benzodioxole","-","A55638","25489863","-","-","48.0 - 51.0","?C","49.5","Celsius"
"COC(=O)C1=CC(N)=C(Cl)C=C1","40872-87-5","EN300-10897","5552","methyl 3-amino-4-chlorobenzoate","-","A55638","25489863","-","-","81.0 - 83.0","?C","82.0","Celsius"
"CCOC(=O)NC1=C(C=C(N)C=C1)C#N","-","EN300-108972","5553","ethyl N-(4-amino-2-cyanophenyl)carbamate","-","A55638","25489863","-","-","166.0 - 168.0","?C","167.0","Celsius"
"OC(=O)CCN1C=CC2=C1C=CC=C2","6639-06-1","EN300-10898","5554","3-(1H-indol-1-yl)propanoic acid","-","A55638","25489863","-","-","49.0 - 51.0","?C","50.0","Celsius"
"OC(=O)C1=CC=C(NC(=O)CC2SC(=NC2=O)N2CCCC2)C=C1","-","EN300-10902","5557","4-{[(4-oxo-2-pyrrolidin-1-yl-4,5-dihydro-1,3-thiazol-5-yl)acetyl]amino}benzoic acid","-","A55638","25489863","-","-","180.0 - 183.0","?C","182.0","Celsius"
"CC1=C(Br)C(Cl)=C(C=N1)C(O)=O","-","EN300-109027","5558","5-bromo-4-chloro-6-methylpyridine-3-carboxylic acid","-","A55638","25489863","-","-","152.0 - 154.0","?C","153.0","Celsius"
"ClC1=C(Cl)C2=C(S1)C=CC=C2","-","EN300-109051","5561","2,3-dichloro-1-benzothiophene","-","A55638","25489863","-","-","53.0 - 55.0","?C","54.0","Celsius"
"CC(C)(C)OC(=O)NC1=C(Br)SC=C1","-","EN300-109052","5562","tert-butyl N-(2-bromothiophen-3-yl)carbamate","-","A55638","25489863","-","-","69.0 - 71.0","?C","70.0","Celsius"
"CC1=C(CC(=O)NN)C=CC=C1","-","EN300-109055","5563","2-(2-methylphenyl)acetohydrazide","-","A55638","25489863","-","-","129.0 - 131.0","?C","130.0","Celsius"