"SMILES","CASRN","EXTERNALID","N","NAME","NAME","ARTICLEID","PUBMEDID","PAGE","TABLE","Melting Point {measured}","UNIT {Melting Point}","Melting Point {measured, converted}","UNIT {Melting Point}"
"NC1=C(N=C2C=CC=CN12)C1=NC=CC=C1","-","EN300-102350","4090","2-(pyridin-2-yl)imidazo[1,2-a]pyridin-3-amine","-","A55638","25489863","-","-","199.0 - 201.0","?C","200.0","Celsius"
"OC(=O)C1(CC2=CC=CC=C2)CC1","-","EN300-102352","4092","1-benzylcyclopropane-1-carboxylic acid","-","A55638","25489863","-","-","102.0 - 104.0","?C","103.0","Celsius"
"NC1=C(N=C2C=CC=CN12)C1=CN=CC=C1","-","EN300-102353","4093","2-(pyridin-3-yl)imidazo[1,2-a]pyridin-3-amine","-","A55638","25489863","-","-","179.0 - 181.0","?C","180.0","Celsius"
"NS(=O)(=O)CC1=C(Cl)C=CC=C1","-","EN300-102365","4095","(2-chlorophenyl)methanesulfonamide","-","A55638","25489863","-","-","104.0 - 106.0","?C","105.0","Celsius"
"CC1CCN(C1)C1=NC=CC(=C1)C(O)=O","-","EN300-102368","4096","2-(3-methylpyrrolidin-1-yl)pyridine-4-carboxylic acid","-","A55638","25489863","-","-","195.0 - 197.0","?C","196.0","Celsius"
"OC(=O)C1CC2=C(C=CC=C2)C(=O)O1","-","EN300-10237","4097","1-oxo-3,4-dihydro-1H-isochromene-3-carboxylic acid","-","A55638","25489863","-","-","151.0 - 153.0","?C","152.0","Celsius"
"CC1=CC=C(C=C1)N1N=C(Br)CC1C(O)=O","-","EN300-102375","4098","3-bromo-1-(4-methylphenyl)-4,5-dihydro-1H-pyrazole-5-carboxylic acid","-","A55638","25489863","-","-","79.0 - 81.0","?C","80.0","Celsius"
"NC1=C(C=C(F)C=C1)C#N","-","EN300-102377","4099","2-amino-5-fluorobenzonitrile","-","A55638","25489863","-","-","92.0 - 96.0","?C","94.0","Celsius"
"CC1=CC(=CC=C1)N1C=C(N=N1)C(=O)CCl","-","EN300-102386","4100","2-chloro-1-[1-(3-methylphenyl)-1H-1,2,3-triazol-4-yl]ethan-1-one","-","A55638","25489863","-","-","141.0 - 143.0","?C","142.0","Celsius"
"CCOC(=O)C1=C(C=CC=C1)C#N","-","EN300-102392","4101","ethyl 2-cyanobenzoate","-","A55638","25489863","-","-","59.0 - 61.0","?C","60.0","Celsius"
"O=C1N2CCOC2=NC2=C1C=CC=C2","-","EN300-102393","4102","2H,3H,5H-[1,3]oxazolo[2,3-b]quinazolin-5-one","-","A55638","25489863","-","-","160.0 - 163.0","?C","162.0","Celsius"
"FC(F)(F)CNC(=O)NC(=O)CCCl","-","EN300-102394","4103","1-(3-chloropropanoyl)-3-(2,2,2-trifluoroethyl)urea","-","A55638","25489863","-","-","145.0 - 147.0","?C","146.0","Celsius"
"NS(=O)(=O)C1=C(Br)C=C(F)C=C1Br","-","EN300-102395","4104","2,6-dibromo-4-fluorobenzene-1-sulfonamide","-","A55638","25489863","-","-","174.0 - 176.0","?C","175.0","Celsius"
"CN1C=CC2=C1C(Cl)=NC=C2","-","EN300-102397","4105","7-chloro-1-methyl-1H-pyrrolo[2,3-c]pyridine","-","A55638","25489863","-","-","57.0 - 59.0","?C","58.0","Celsius"
"FC(F)(F)C1=CC(NC(=O)C=C)=CC=C1","-","EN300-102398","4106","N-[3-(trifluoromethyl)phenyl]prop-2-enamide","-","A55638","25489863","-","-","79.0 - 81.0","?C","80.0","Celsius"
"CC1=CC(C)=C(C#N)C(=S)N1","54585-47-6","EN300-10240","4107","4,6-dimethyl-2-thioxo-1,2-dihydropyridine-3-carbonitrile","-","A55638","25489863","-","-","255.0 - 257.0","?C","256.0","Celsius"
"CC(C)(C)OC(=O)NCCCN1C=CC2=C1C=CC(=C2)C(O)=O","-","EN300-102402","4108","1-(3-{[(tert-butoxy)carbonyl]amino}propyl)-1H-indole-5-carboxylic acid","-","A55638","25489863","-","-","172.0 - 174.0","?C","173.0","Celsius"
"CC1=CC2=C(S1)N=C(N)S2","-","EN300-102412","4110","5-methylthieno[2,3-d][1,3]thiazol-2-amine","-","A55638","25489863","-","-","117.0 - 119.0","?C","118.0","Celsius"
"CC1=C(Br)SC(=C1)C(O)=O","-","EN300-102413","4111","5-bromo-4-methylthiophene-2-carboxylic acid","-","A55638","25489863","-","-","171.0 - 173.0","?C","172.0","Celsius"
"CC1CNC2=C(O1)C=C(C)C(Br)=C2","-","EN300-102414","4112","6-bromo-2,7-dimethyl-3,4-dihydro-2H-1,4-benzoxazine","-","A55638","25489863","-","-","93.0 - 95.0","?C","94.0","Celsius"
"O=C1CSC2=C(N1)C=NC=C2","-","EN300-102417","4113","2H,3H,4H-pyrido[4,3-b][1,4]thiazin-3-one","-","A55638","25489863","-","-","203.0 - 205.0","?C","204.0","Celsius"
"ClCC(=O)NC1=NN=CS1","4454-63-1","EN300-10242","4114","2-chloro-N-1,3,4-thiadiazol-2-ylacetamide","-","A55638","25489863","-","-","233.0 - 235.0","?C","234.0","Celsius"
"O=C1COC2=C(N1)C=NC=C2","-","EN300-102420","4115","2H,3H,4H-pyrido[4,3-b][1,4]oxazin-3-one","-","A55638","25489863","-","-","268.0 - 270.0","?C","269.0","Celsius"
"COC(=O)C1=CC2=C(O1)C(Br)=CC=C2","-","EN300-102423","4116","methyl 7-bromo-1-benzofuran-2-carboxylate","-","A55638","25489863","-","-","76.0 - 78.0","?C","77.0","Celsius"
"COC1=NC2=C(C=CC=C2)C(O)=N1","-","EN300-102428","4118","2-methoxyquinazolin-4-ol","-","A55638","25489863","-","-","228.0 - 230.0","?C","229.0","Celsius"
"OC(=O)C=CC1=CN=C(Cl)C=C1","-","EN300-102446","4119","3-(6-chloropyridin-3-yl)prop-2-enoic acid","-","A55638","25489863","-","-","209.0 - 211.0","?C","210.0","Celsius"
"NC1=CC=C(C=C1)C1=NN=C(O)O1","-","EN300-102452","4121","5-(4-aminophenyl)-1,3,4-oxadiazol-2-ol","-","A55638","25489863","-","-","166.0 - 168.0","?C","167.0","Celsius"
"OCC1=C(Cl)C(Cl)=CC=N1","-","EN300-102457","4123","(3,4-dichloropyridin-2-yl)methanol","-","A55638","25489863","-","-","59.0 - 61.0","?C","60.0","Celsius"
"CCCC(NC(=O)C1=CC=CC=C1)C(N)=S","-","EN300-102460","4124","N-(1-carbamothioylbutyl)benzamide","-","A55638","25489863","-","-","202.0 - 204.0","?C","203.0","Celsius"
"CC1=NC2=C(CCCC2)C(O)=N1","-","EN300-102462","4126","2-methyl-5,6,7,8-tetrahydroquinazolin-4-ol","-","A55638","25489863","-","-","206.0 - 208.0","?C","207.0","Celsius"
"CN1CC(=O)N(C1=O)C1=CC=C(C=C1)[N+]([O-])=O","-","EN300-102463","4127","1-methyl-3-(4-nitrophenyl)imidazolidine-2,4-dione","-","A55638","25489863","-","-","161.0 - 163.0","?C","162.0","Celsius"
"NC1=C(N=C2C=CC=CN12)C1=CC=CO1","-","EN300-102465","4128","2-(furan-2-yl)imidazo[1,2-a]pyridin-3-amine","-","A55638","25489863","-","-","165.0 - 167.0","?C","166.0","Celsius"
"COC1=CC(NC2=NN=C(S)S2)=CC=C1","68161-58-0","EN300-10247","4129","5-[(3-methoxyphenyl)amino]-1,3,4-thiadiazole-2-thiol","-","A55638","25489863","-","-","208.0 - 210.0","?C","209.0","Celsius"
"OCCSC1=C2C=CC(Cl)=CC2=NC=C1","-","EN300-102476","4130","2-[(7-chloroquinolin-4-yl)sulfanyl]ethan-1-ol","-","A55638","25489863","-","-","111.0 - 113.0","?C","112.0","Celsius"
"CCOC(=O)C1=C(C=CC(Cl)=C1)[N+]([O-])=O","-","EN300-102478","4132","ethyl 5-chloro-2-nitrobenzoate","-","A55638","25489863","-","-","37.0 - 39.0","?C","38.0","Celsius"
"CN1C(=O)NC=C(C(O)=O)C1=O","-","EN300-102487","4134","3-methyl-2,4-dioxo-1,2,3,4-tetrahydropyrimidine-5-carboxylic acid","-","A55638","25489863","-","-","233.0 - 235.0","?C","234.0","Celsius"
"CC(=O)NC1=CC=C(CO)C=C1","-","EN300-102492","4136","N-[4-(hydroxymethyl)phenyl]acetamide","-","A55638","25489863","-","-","117.0 - 119.0","?C","118.0","Celsius"
"COC1=C(C=CC=C1)C1=NN=CO1","-","EN300-102493","4137","2-(2-methoxyphenyl)-1,3,4-oxadiazole","-","A55638","25489863","-","-","49.0 - 51.0","?C","50.0","Celsius"
"CC(C)C1=NOC(=N1)C1=C(N)C=CC(Cl)=C1","-","EN300-102494","4138","4-chloro-2-[3-(propan-2-yl)-1,2,4-oxadiazol-5-yl]aniline","-","A55638","25489863","-","-","93.0 - 95.0","?C","94.0","Celsius"
"COC1=C(C=C(Cl)C=C1)C(F)(F)C(O)=O","-","EN300-102497","4139","2-(5-chloro-2-methoxyphenyl)-2,2-difluoroacetic acid","-","A55638","25489863","-","-","110.0 - 112.0","?C","111.0","Celsius"
"FC(F)(F)COC1=C(C=C(Cl)C=C1)C#N","-","EN300-102499","4140","5-chloro-2-(2,2,2-trifluoroethoxy)benzonitrile","-","A55638","25489863","-","-","66.0 - 68.0","?C","67.0","Celsius"
"COCC(C)NS(=O)(=O)C1=CC(=C(Cl)C=C1)[N+]([O-])=O","-","EN300-10251","4142","4-chloro-N-(2-methoxy-1-methylethyl)-3-nitrobenzenesulfonamide","-","A55638","25489863","-","-","209.0 - 211.0","?C","210.0","Celsius"
"CCOC(=O)CN1C=C(Br)C=CC1=O","-","EN300-102532","4144","ethyl 2-(5-bromo-2-oxo-1,2-dihydropyridin-1-yl)acetate","-","A55638","25489863","-","-","81.0 - 83.0","?C","82.0","Celsius"
"NC1=NC(SCCO)=NN1","-","EN300-102533","4145","2-[(5-amino-1H-1,2,4-triazol-3-yl)sulfanyl]ethan-1-ol","-","A55638","25489863","-","-","126.0 - 128.0","?C","127.0","Celsius"
"OCCNC1=CC=C(C=C1)C#N","-","EN300-102534","4146","4-[(2-hydroxyethyl)amino]benzonitrile","-","A55638","25489863","-","-","84.0 - 86.0","?C","85.0","Celsius"
"NC1=CC(C(=O)NCC2=CC=CS2)=C(Cl)C=C1","-","EN300-102537","4147","5-amino-2-chloro-N-(thiophen-2-ylmethyl)benzamide","-","A55638","25489863","-","-","69.0 - 71.0","?C","70.0","Celsius"
"CC1=C(SC(=C1)C(O)=O)C=O","-","EN300-102538","4148","5-formyl-4-methylthiophene-2-carboxylic acid","-","A55638","25489863","-","-","204.0 - 206.0","?C","205.0","Celsius"
"NC(=O)CC1=CC=C(Br)C=C1","-","EN300-102539","4149","2-(4-bromophenyl)acetamide","-","A55638","25489863","-","-","194.0 - 196.0","?C","195.0","Celsius"
"CC(NS(=O)(=O)C1=CC=C(N)C=C1)C1CC2CCC1C2","-","EN300-10255","4151","4-amino-N-(1-bicyclo[2.2.1]hept-2-ylethyl)benzenesulfonamide","-","A55638","25489863","-","-","202.0 - 204.0","?C","203.0","Celsius"
"O=C(CCC1=CC=CC=C1)C1=CC=CC=C1","-","EN300-102554","4152","1,3-diphenylpropan-1-one","-","A55638","25489863","-","-","69.0 - 71.0","?C","70.0","Celsius"
"COC1=C(C=C(Br)C=C1)C(N)C(O)=O","-","EN300-102574","4156","2-amino-2-(5-bromo-2-methoxyphenyl)acetic acid","-","A55638","25489863","-","-","163.0 - 165.0","?C","164.0","Celsius"
"OC(=O)C1=CC(=O)N(CC2=CC=CC=C2)C2=C1C=CC=C2","-","EN300-102577","4157","1-benzyl-2-oxo-1,2-dihydroquinoline-4-carboxylic acid","-","A55638","25489863","-","-","215.0 - 217.0","?C","216.0","Celsius"
"CC1=C(Br)C(Cl)=NC(N)=N1","-","EN300-102579","4158","5-bromo-4-chloro-6-methylpyrimidin-2-amine","-","A55638","25489863","-","-","189.0 - 191.0","?C","190.0","Celsius"
"CNC1=NNC(N)=C1S(C)(=O)=O","-","EN300-102586","4160","4-methanesulfonyl-3-N-methyl-1H-pyrazole-3,5-diamine","-","A55638","25489863","-","-","171.0 - 173.0","?C","172.0","Celsius"
"CN(C)C(=O)SC1=CC=C(CCl)C=C1","-","EN300-102592","4161","1-{[4-(chloromethyl)phenyl]sulfanyl}-N,N-dimethylformamide","-","A55638","25489863","-","-","78.0 - 80.0","?C","79.0","Celsius"
"NC(=O)C1CCC(NC1)C(F)(F)F","-","EN300-102593","4162","6-(trifluoromethyl)piperidine-3-carboxamide","-","A55638","25489863","-","-","127.0 - 129.0","?C","128.0","Celsius"
"FC(F)OC1=C(CBr)C=CC(=C1)C#N","-","EN300-102596","4163","4-(bromomethyl)-3-(difluoromethoxy)benzonitrile","-","A55638","25489863","-","-","80.0 - 82.0","?C","81.0","Celsius"
"CC(C(O)=O)C1=CC=C(C=C1)S(=O)(=O)N(C)C","-","EN300-102597","4164","2-[4-(dimethylsulfamoyl)phenyl]propanoic acid","-","A55638","25489863","-","-","122.0 - 124.0","?C","123.0","Celsius"
"COC1=C(F)C=C(CCCC(O)=O)C=C1","-","EN300-102600","4165","4-(3-fluoro-4-methoxyphenyl)butanoic acid","-","A55638","25489863","-","-","63.0 - 65.0","?C","64.0","Celsius"
"C#CC1=NC2=C(C=CC=C2)N=C1","-","EN300-102602","4166","2-ethynylquinoxaline","-","A55638","25489863","-","-","99.0 - 101.0","?C","100.0","Celsius"
"CN(C)C(=O)SC1=CC(CCl)=CC=C1","-","EN300-102603","4167","1-{[3-(chloromethyl)phenyl]sulfanyl}-N,N-dimethylformamide","-","A55638","25489863","-","-","44.0 - 46.0","?C","45.0","Celsius"
"O=C1NC(=O)C2=C(CCCC2)N1","-","EN300-102604","4168","1,2,3,4,5,6,7,8-octahydroquinazoline-2,4-dione","-","A55638","25489863","-","-","304.0 - 306.0","?C","305.0","Celsius"
"N#CC1=NC=CN1","-","EN300-102606","4169","1H-imidazole-2-carbonitrile","-","A55638","25489863","-","-","173.0 - 175.0","?C","174.0","Celsius"
"CC1=C(COC2CCCCC2)C=CC=C1N","-","EN300-102611","4172","3-[(cyclohexyloxy)methyl]-2-methylaniline","-","A55638","25489863","-","-","54.0 - 56.0","?C","55.0","Celsius"
"[O-][N+](=O)C1=C(F)C=C2NC(=O)COC2=C1","-","EN300-102616","4173","6-fluoro-7-nitro-3,4-dihydro-2H-1,4-benzoxazin-3-one","-","A55638","25489863","-","-","221.0 - 223.0","?C","222.0","Celsius"
"COC1=C(OC(C)C)C(Cl)=CC(C=O)=C1","-","EN300-10262","4174","3-chloro-4-isopropoxy-5-methoxybenzaldehyde","-","A55638","25489863","-","-","34.0 - 36.0","?C","35.0","Celsius"
"OC(=O)C1=CC=C(COC2=CC=CC=C2)O1","91368-74-0","EN300-10263","4176","5-(phenoxymethyl)-2-furoic acid","-","A55638","25489863","-","-","169.0 - 171.0","?C","170.0","Celsius"
"CC1(C)SC(=O)NC1=O","-","EN300-102646","4177","5,5-dimethyl-1,3-thiazolidine-2,4-dione","-","A55638","25489863","-","-","77.0 - 79.0","?C","78.0","Celsius"
"CC1=C(N)C(O)=NC(O)=N1","-","EN300-102647","4178","5-amino-6-methylpyrimidine-2,4-diol","-","A55638","25489863","-","-","259.0 - 261.0","?C","260.0","Celsius"
"CC1=C(C=C(C=C1)C(O)=O)S(=O)(=O)NC1CCCC1","-","EN300-102650","4181","3-(cyclopentylsulfamoyl)-4-methylbenzoic acid","-","A55638","25489863","-","-","185.0 - 187.0","?C","186.0","Celsius"
"COC1=CC(=CC(OC)=C1)N1CC(CC1=O)C(O)=O","-","EN300-102651","4182","1-(3,5-dimethoxyphenyl)-5-oxopyrrolidine-3-carboxylic acid","-","A55638","25489863","-","-","125.0 - 127.0","?C","126.0","Celsius"
"CC(SCC(O)=O)C(=O)NC1=NOC(C)=C1","-","EN300-10266","4183","({1-methyl-2-[(5-methylisoxazol-3-yl)amino]-2-oxoethyl}thio)acetic acid","-","A55638","25489863","-","-","125.0 - 127.0","?C","126.0","Celsius"
"CC1=C(Br)SC(=C1)S(N)(=O)=O","-","EN300-102665","4184","5-bromo-4-methylthiophene-2-sulfonamide","-","A55638","25489863","-","-","149.0 - 151.0","?C","150.0","Celsius"
"CN1N(C(=O)C(NC(=O)CSCC(O)=O)=C1C)C1=CC=CC=C1","-","EN300-10268","4185","({2-[(1,5-dimethyl-3-oxo-2-phenyl-2,3-dihydro-1H-pyrazol-4-yl)amino]-2-oxoethyl}thio)acetic acid","-","A55638","25489863","-","-","180.0 - 182.0","?C","181.0","Celsius"
"CC(C)N(C)S(=O)(=O)C1=CC=C(N)C=C1","-","EN300-10269","4186","4-amino-N-isopropyl-N-methylbenzenesulfonamide","-","A55638","25489863","-","-","119.0 - 121.0","?C","120.0","Celsius"
"CC1=NC(C)=C(NC(=O)OC(C)(C)C)S1","-","EN300-102697","4187","tert-butyl N-(2,4-dimethyl-1,3-thiazol-5-yl)carbamate","-","A55638","25489863","-","-","90.0 - 92.0","?C","91.0","Celsius"
"NC1=NC=NC(=C1)C1=CC=C(Br)C=C1","-","EN300-102699","4188","6-(4-bromophenyl)pyrimidin-4-amine","-","A55638","25489863","-","-","251.0 - 253.0","?C","252.0","Celsius"
"NC1=C(Br)C=C2NC(=O)COC2=C1","-","EN300-102703","4190","7-amino-6-bromo-3,4-dihydro-2H-1,4-benzoxazin-3-one","-","A55638","25489863","-","-","209.0 - 211.0","?C","210.0","Celsius"
"[O-][N+](=O)C1=CC(OC2=CC=C(C=O)C=C2)=CC=C1","-","EN300-102704","4191","4-(3-nitrophenoxy)benzaldehyde","-","A55638","25489863","-","-","59.0 - 61.0","?C","60.0","Celsius"
"CNS(=O)(=O)C1=C(F)C=CC(=C1)C(O)=O","-","EN300-102705","4192","4-fluoro-3-(methylsulfamoyl)benzoic acid","-","A55638","25489863","-","-","209.0 - 211.0","?C","210.0","Celsius"
"CS(=O)(=O)NC1=C(C=CC=C1)C(O)=O","162787-61-3","EN300-10272","4193","2-[(methylsulfonyl)amino]benzoic acid","-","A55638","25489863","-","-","175.0 - 177.0","?C","176.0","Celsius"
"OC(=O)C12CCC(=O)N1C1=C(S2)C=CC=C1","-","EN300-10273","4194","1-oxo-2,3-dihydropyrrolo[2,1-b][1,3]benzothiazole-3a(1H)-carboxylic acid","-","A55638","25489863","-","-","225.0 - 227.0","?C","226.0","Celsius"
"NC(=O)C1=C(OC2=C(C=CC=N2)C(O)=O)C=CC=C1","-","EN300-102749","4197","2-(2-carbamoylphenoxy)pyridine-3-carboxylic acid","-","A55638","25489863","-","-","253.0 - 255.0","?C","254.0","Celsius"
"OC(=O)CCCC1=CC=C(O)C=C1","-","EN300-102750","4198","4-(4-hydroxyphenyl)butanoic acid","-","A55638","25489863","-","-","106.0 - 108.0","?C","107.0","Celsius"
"CN1CCCC2=C1C=C(C=C2)S(Cl)(=O)=O","-","EN300-102753","4199","1-methyl-1,2,3,4-tetrahydroquinoline-7-sulfonyl chloride","-","A55638","25489863","-","-","64.0 - 66.0","?C","65.0","Celsius"
"NN1C(S)=NN=C1C1CCOC1","-","EN300-102756","4201","4-amino-3-(oxolan-3-yl)-4,5-dihydro-1H-1,2,4-triazole-5-thione","-","A55638","25489863","-","-","116.0 - 118.0","?C","117.0","Celsius"
"OC(=O)C1=C(OCC(F)(F)F)C=CC=N1","-","EN300-102760","4204","3-(2,2,2-trifluoroethoxy)pyridine-2-carboxylic acid","-","A55638","25489863","-","-","116.0 - 118.0","?C","117.0","Celsius"
"OC(CNCC1=CC=CC=C1)C1=CC=CO1","-","EN300-102764","4205","2-(benzylamino)-1-(furan-2-yl)ethan-1-ol","-","A55638","25489863","-","-","68.0 - 70.0","?C","69.0","Celsius"
"FC1=CC(S)=C(F)C=C1Br","-","EN300-102765","4206","4-bromo-2,5-difluorobenzene-1-thiol","-","A55638","25489863","-","-","47.0 - 49.0","?C","48.0","Celsius"
"COC(=O)COC1=C(C)C=C(C=C1C)C(O)=O","-","EN300-102766","4207","4-(2-methoxy-2-oxoethoxy)-3,5-dimethylbenzoic acid","-","A55638","25489863","-","-","173.0 - 175.0","?C","174.0","Celsius"
"CC1(C)NC(=O)N=C1N","-","EN300-102767","4208","4-amino-5,5-dimethyl-2,5-dihydro-1H-imidazol-2-one","-","A55638","25489863","-","-","259.0 - 261.0","?C","260.0","Celsius"
"CC1=CC2=C(N=C(C=C2C(O)=O)C2CC2)C(C)=C1","-","EN300-102776","4209","2-cyclopropyl-6,8-dimethylquinoline-4-carboxylic acid","-","A55638","25489863","-","-","207.0 - 209.0","?C","208.0","Celsius"
"ClS(=O)(=O)CCNS(=O)(=O)C1=CC=CC=C1","-","EN300-102778","4210","2-benzenesulfonamidoethane-1-sulfonyl chloride","-","A55638","25489863","-","-","96.0 - 98.0","?C","97.0","Celsius"
"CC1=CC=C(O1)C(=O)NN","-","EN300-102779","4211","5-methylfuran-2-carbohydrazide","-","A55638","25489863","-","-","59.0 - 61.0","?C","60.0","Celsius"
"COC1=C(C=C(C=CC(O)=O)C=C1)S(Cl)(=O)=O","-","EN300-10280","4213","(2E)-3-[3-(chlorosulfonyl)-4-methoxyphenyl]acrylic acid","-","A55638","25489863","-","-","184.0 - 186.0","?C","185.0","Celsius"
"CC1(CC(=O)NC1=O)C1=CSC=C1","-","EN300-102803","4214","3-methyl-3-(thiophen-3-yl)pyrrolidine-2,5-dione","-","A55638","25489863","-","-","96.0 - 98.0","?C","97.0","Celsius"
"N(C1=CC=CC=C1)C1=NC=CC=N1","-","EN300-102811","4215","N-phenylpyrimidin-2-amine","-","A55638","25489863","-","-","107.0 - 109.0","?C","108.0","Celsius"
"ClC1=C(Cl)C(=O)OC1=O","-","EN300-102814","4216","3,4-dichloro-2,5-dihydrofuran-2,5-dione","-","A55638","25489863","-","-","107.0 - 109.0","?C","108.0","Celsius"
"NNC1=C(Cl)N=CC=C1","-","EN300-102824","4217","2-chloro-3-hydrazinylpyridine","-","A55638","25489863","-","-","149.0 - 151.0","?C","150.0","Celsius"
"CC1=CC(=C(CN)C=C1)S(C)(=O)=O","-","EN300-102831","4219","(2-methanesulfonyl-4-methylphenyl)methanamine","-","A55638","25489863","-","-","32.0 - 34.0","?C","33.0","Celsius"
"NC1=CC(=CC=C1)C(=O)CCC(O)=O","-","EN300-102836","4221","4-(3-aminophenyl)-4-oxobutanoic acid","-","A55638","25489863","-","-","126.0 - 128.0","?C","127.0","Celsius"
"CCC1=CC=C(O1)C(=O)C1=CC=C(N)C=C1","-","EN300-102846","4222","4-[(5-ethylfuran-2-yl)carbonyl]aniline","-","A55638","25489863","-","-","124.0 - 126.0","?C","125.0","Celsius"
"OC1=CC2=C(OC(=O)S2)C=C1","-","EN300-102849","4223","5-hydroxy-2H-1,3-benzoxathiol-2-one","-","A55638","25489863","-","-","171.0 - 173.0","?C","172.0","Celsius"
"COC1=NC(=CC=C1)C(O)=O","-","EN300-102850","4224","6-methoxypyridine-2-carboxylic acid","-","A55638","25489863","-","-","133.0 - 135.0","?C","134.0","Celsius"
"CCC1=CC=C(O1)C(=O)C1=CC=C(C=C1)[N+]([O-])=O","-","EN300-102851","4225","2-ethyl-5-[(4-nitrophenyl)carbonyl]furan","-","A55638","25489863","-","-","76.0 - 78.0","?C","77.0","Celsius"
"OC(=O)C1=CN2N=NN=C2C=C1","-","EN300-102853","4226","[1,2,3,4]tetrazolo[1,5-a]pyridine-6-carboxylic acid","-","A55638","25489863","-","-","216.0 - 218.0","?C","217.0","Celsius"
"CC1=CC(O)=CC(=O)N1CC(O)=O","-","EN300-102864","4227","2-(4-hydroxy-6-methyl-2-oxo-1,2-dihydropyridin-1-yl)acetic acid","-","A55638","25489863","-","-","248.0 - 250.0","?C","249.0","Celsius"
"OCC1(CCCC1)NCCC1=CC=CC=C1","-","EN300-102872","4229","{1-[(2-phenylethyl)amino]cyclopentyl}methanol","-","A55638","25489863","-","-","86.0 - 88.0","?C","87.0","Celsius"
"CC1OC2=C(NC1=O)C=C(Br)C(C)=C2","-","EN300-102879","4230","6-bromo-2,7-dimethyl-3,4-dihydro-2H-1,4-benzoxazin-3-one","-","A55638","25489863","-","-","208.0 - 210.0","?C","209.0","Celsius"
"COC1=CC(NCC(=O)NN)=CC=C1","-","EN300-10288","4231","2-[(3-methoxyphenyl)amino]acetohydrazide","-","A55638","25489863","-","-","108.0 - 112.0","?C","110.0","Celsius"
"OC(=O)C1=C(NC(=O)OCC2=CC=CC=C2)C=CC=C1","-","EN300-102890","4233","2-{[(benzyloxy)carbonyl]amino}benzoic acid","-","A55638","25489863","-","-","129.0 - 131.0","?C","130.0","Celsius"
"CCC[C@@H](NC(N)=O)C(O)=O","-","EN300-102901","4234","(2R)-2-(carbamoylamino)pentanoic acid","-","A55638","25489863","-","-","183.0 - 185.0","?C","184.0","Celsius"
"CC1=C(C#N)C(N)=NC=C1","-","EN300-102925","4236","2-amino-4-methylpyridine-3-carbonitrile","-","A55638","25489863","-","-","148.0 - 150.0","?C","149.0","Celsius"