"SMILES","CASRN","EXTERNALID","N","NAME","NAME","ARTICLEID","PUBMEDID","PAGE","TABLE","Melting Point {measured}","UNIT {Melting Point}","Melting Point {measured, converted}","UNIT {Melting Point}"
"COC1=C(NS(=O)(=O)C2=CC(=CC=C2)C(O)=O)C=C(Cl)C=C1","-","EN300-00430","227","3-(5-Chloro-2-methoxy-phenylsulfamoyl)-benzoic acid","-","A55638","25489863","-","-","155.0 - 157.0","?C","156.0","Celsius"
"OC(=O)C1=CC=C(NS(=O)(=O)C2=CC(Cl)=C(Cl)C=C2)C=C1","-","EN300-00432","228","4-(3,4-Dichloro-benzenesulfonylamino)-benzoic acid","-","A55638","25489863","-","-","254.0 - 256.0","?C","255.0","Celsius"
"COC1=C(NS(=O)(=O)C2=C(Cl)C=CC(=C2)C(O)=O)C=C(C=C1)[N+]([O-])=O","-","EN300-00433","229","4-Chloro-3-(2-methoxy-5-nitro-phenylsulfamoyl)-benzoic acid","-","A55638","25489863","-","-","57.0 - 59.0","?C","58.0","Celsius"
"OC(=O)CCC1=CC=C(C=C1)S(=O)(=O)N1CCOCC1","-","EN300-00436","230","3-[4-(Morpholine-4-sulfonyl)-phenyl]-propionic acid","-","A55638","25489863","-","-","160.0 - 162.0","?C","161.0","Celsius"
"CC1=C(C)C=C(NS(=O)(=O)C2=CC(C(O)=O)=C(Cl)C=C2)C=C1","-","EN300-00437","231","2-Chloro-5-(3,4-dimethyl-phenylsulfamoyl)-benzoic acid","-","A55638","25489863","-","-","207.0 - 209.0","?C","208.0","Celsius"
"CC1=CC=C(NS(=O)(=O)C2=CC(=CC=C2)C(O)=O)C=C1","-","EN300-00438","232","3-p-Tolylsulfamoyl-benzoic acid","-","A55638","25489863","-","-","203.0 - 205.0","?C","204.0","Celsius"
"CC1=C(C=C(C=C1)C(O)=O)S(=O)(=O)N1CCCCC1","-","EN300-00439","233","4-Methyl-3-(piperidine-1-sulfonyl)-benzoic acid","-","A55638","25489863","-","-","179.0 - 181.0","?C","180.0","Celsius"
"CC1=C(C=C(C=C1)S(=O)(=O)N1CCOCC1)C(O)=O","-","EN300-00440","234","2-Methyl-5-(morpholine-4-sulfonyl)-benzoic acid","-","A55638","25489863","-","-","148.0 - 152.0","?C","150.0","Celsius"
"OC(=O)C1=C(Cl)C=CC(=C1)S(=O)(=O)NC1=CC=C(F)C=C1","-","EN300-00441","235","2-Chloro-5-(4-fluoro-phenylsulfamoyl)-benzoic acid","-","A55638","25489863","-","-","205.0 - 207.0","?C","206.0","Celsius"
"CC1=C(C=C(C=C1)C(O)=O)S(=O)(=O)N1CCOCC1","-","EN300-00444","236","4-Methyl-3-(morpholine-4-sulfonyl)-benzoic acid","-","A55638","25489863","-","-","176.0 - 178.0","?C","177.0","Celsius"
"OC(=O)C1=CC(=C(F)C=C1)S(=O)(=O)N1CCCCC1","-","EN300-00445","237","4-Fluoro-3-(piperidine-1-sulfonyl)-benzoic acid","-","A55638","25489863","-","-","203.0 - 205.0","?C","204.0","Celsius"
"CC1=CC=C(NS(=O)(=O)C2=C(C)C=CC(=C2)C(O)=O)C=C1","-","EN300-00447","238","4-Methyl-3-p-tolylsulfamoyl-benzoic acid","-","A55638","25489863","-","-","55.0 - 57.0","?C","56.0","Celsius"
"COC1=CC=C(NS(=O)(=O)C2=C(F)C=CC(=C2)C(O)=O)C=C1","-","EN300-00452","239","4-Fluoro-3-(4-methoxy-phenylsulfamoyl)-benzoic acid","-","A55638","25489863","-","-","209.0 - 211.0","?C","210.0","Celsius"
"CCN(CC)S(=O)(=O)C1=C(F)C=CC(=C1)C(O)=O","-","EN300-00453","240","3-Diethylsulfamoyl-4-fluoro-benzoic acid","-","A55638","25489863","-","-","159.0 - 161.0","?C","160.0","Celsius"
"OC(=O)C1=CC=C(NS(=O)(=O)C2=CC=C(Br)S2)C=C1","-","EN300-00456","241","4-(5-Bromo-thiophene-2-sulfonylamino)-benzoic acid","-","A55638","25489863","-","-","254.0 - 256.0","?C","255.0","Celsius"
"CC1=C(C=CC(F)=C1)S(=O)(=O)NC1=CC=C(C=C1)C(O)=O","-","EN300-00466","242","4-(4-Fluoro-2-methyl-benzenesulfonylamino)-benzoic acid","-","A55638","25489863","-","-","199.0 - 201.0","?C","200.0","Celsius"
"CN(C1=CC=CC=C1)S(=O)(=O)C1=CC(C(O)=O)=C(Cl)C=C1","-","EN300-00469","243","2-Chloro-5-(methyl-phenyl-sulfamoyl)-benzoic acid","-","A55638","25489863","-","-","151.0 - 153.0","?C","152.0","Celsius"
"CCCCN(C1=CC=CC=C1)S(=O)(=O)C1=CC(=CC=C1)C(O)=O","-","EN300-00470","244","3-(Butyl-phenyl-sulfamoyl)-benzoic acid","-","A55638","25489863","-","-","161.0 - 163.0","?C","162.0","Celsius"
"CC1=C(F)C=CC(=C1)S(=O)(=O)NC1=C(C=CC=C1)C(O)=O","-","EN300-00471","245","2-(4-Fluoro-3-methyl-benzenesulfonylamino)-benzoic acid","-","A55638","25489863","-","-","65.0 - 68.0","?C","66.5","Celsius"
"CC1=C(C=C(F)C=C1)S(=O)(=O)NC1=CC(=CC=C1)C(O)=O","-","EN300-00473","246","3-(5-Fluoro-2-methyl-benzenesulfonylamino)-benzoic acid","-","A55638","25489863","-","-","215.0 - 217.0","?C","216.0","Celsius"
"OC(=O)C1=C(F)C=CC(=C1)S(=O)(=O)N1CCOCC1","-","EN300-00475","247","2-Fluoro-5-(morpholine-4-sulfonyl)-benzoic acid","-","A55638","25489863","-","-","201.0 - 203.0","?C","202.0","Celsius"
"COC1=C(NS(=O)(=O)C2=CC=C(C=C2)C(O)=O)C=CC=C1","-","EN300-00476","248","4-(2-Methoxy-phenylsulfamoyl)-benzoic acid","-","A55638","25489863","-","-","201.0 - 203.0","?C","202.0","Celsius"
"CCOC1=CC=C(NS(=O)(=O)C2=CC(C(O)=O)=C(C)C=C2)C=C1","-","EN300-00478","249","5-(4-Ethoxy-phenylsulfamoyl)-2-methyl-benzoic acid","-","A55638","25489863","-","-","231.0 - 233.0","?C","232.0","Celsius"
"CCN(C1=CC=CC=C1)S(=O)(=O)C1=CC(=CC=C1)C(O)=O","-","EN300-00483","250","3-(Ethyl-phenyl-sulfamoyl)-benzoic acid","-","A55638","25489863","-","-","175.0 - 177.0","?C","176.0","Celsius"
"COC1=CC=C(NS(=O)(=O)C2=C(C)C=CC(=C2)C(O)=O)C=C1","-","EN300-00486","251","3-(4-Methoxy-phenylsulfamoyl)-4-methyl-benzoic acid","-","A55638","25489863","-","-","71.0 - 73.0","?C","72.0","Celsius"
"CCN(C1=CC=CC=C1)S(=O)(=O)C1=CC(C(O)=O)=C(Cl)C=C1","-","EN300-00490","252","2-Chloro-5-(ethyl-phenyl-sulfamoyl)-benzoic acid","-","A55638","25489863","-","-","128.0 - 130.0","?C","129.0","Celsius"
"CN1CCN(CC1)S(=O)(=O)C1=CC(=CC=C1)C(O)=O","-","EN300-00491","253","3-(4-Methyl-piperazine-1-sulfonyl)-benzoic acid","-","A55638","25489863","-","-","230.0 - 232.0","?C","231.0","Celsius"
"CCCCC1=CC=C(NS(=O)(=O)C2=CC(C(O)=O)=C(C)C=C2)C=C1","-","EN300-00496","254","5-(4-Butyl-phenylsulfamoyl)-2-methyl-benzoic acid","-","A55638","25489863","-","-","192.0 - 194.0","?C","193.0","Celsius"
"CC1=CC(NS(=O)(=O)C2=C(Cl)C=C(Cl)C(=C2)C(O)=O)=CC=C1","-","EN300-00498","255","2,4-Dichloro-5-m-tolylsulfamoyl-benzoic acid","-","A55638","25489863","-","-","172.0 - 174.0","?C","173.0","Celsius"
"OC(=O)C1=CC(=C(Cl)C=C1)S(=O)(=O)NC1=CC=C(Br)C=C1","-","EN300-00500","256","3-(4-Bromo-phenylsulfamoyl)-4-chloro-benzoic acid","-","A55638","25489863","-","-","225.0 - 227.0","?C","226.0","Celsius"
"OC(=O)C1=CC(=CC=C1)S(=O)(=O)NC1=CC=C(F)C=C1","-","EN300-00502","257","3-(4-Fluoro-phenylsulfamoyl)-benzoic acid","-","A55638","25489863","-","-","140.0 - 142.0","?C","141.0","Celsius"
"COC1=C(C=C(C=C1)C(O)=O)S(=O)(=O)N1CCOCC1","-","EN300-00504","258","4-Methoxy-3-(morpholine-4-sulfonyl)-benzoic acid","-","A55638","25489863","-","-","218.0 - 220.0","?C","219.0","Celsius"
"OC(=O)C1=CC=C(NS(=O)(=O)C2=CC3=C(OCCO3)C=C2)C=C1","-","EN300-00505","259","4-(2,3-Dihydro-benzo[1,4]dioxine-6-sulfonylamino)-benzoic acid","-","A55638","25489863","-","-","94.0 - 97.0","?C","95.5","Celsius"
"COC1=C(C=CC=C1)N(C)S(=O)(=O)C1=CC(C(O)=O)=C(C)C=C1","-","EN300-00508","260","5-[(2-Methoxy-phenyl)-methyl-sulfamoyl]-2-methyl-benzoic acid","-","A55638","25489863","-","-","153.0 - 155.0","?C","154.0","Celsius"
"OC(=O)C1=CC(=CC=C1)S(=O)(=O)NC1=CC=C(I)C=C1","-","EN300-00510","261","3-(4-Iodo-phenylsulfamoyl)-benzoic acid","-","A55638","25489863","-","-","260.0 - 262.0","?C","261.0","Celsius"
"COC1=CC(OC)=C(Cl)C=C1N(C)S(=O)(=O)C1=CC(=CC=C1)C(O)=O","-","EN300-00512","262","3-[(5-Chloro-2,4-dimethoxy-phenyl)-methyl-sulfamoyl]-benzoic acid","-","A55638","25489863","-","-","208.0 - 210.0","?C","209.0","Celsius"
"CN(C1=CC=C(F)C=C1)S(=O)(=O)C1=CC(C(O)=O)=C(Cl)C=C1","-","EN300-00515","264","2-Chloro-5-[(4-fluoro-phenyl)-methyl-sulfamoyl]-benzoic acid","-","A55638","25489863","-","-","174.0 - 176.0","?C","175.0","Celsius"
"OC(=O)C1=CC(=C(Cl)C=C1)S(=O)(=O)NC1=C(C=CC=C1)N1CCOCC1","-","EN300-00516","265","4-Chloro-3-(2-morpholin-4-yl-phenylsulfamoyl)-benzoic acid","-","A55638","25489863","-","-","178.0 - 180.0","?C","179.0","Celsius"
"CN1N(C(=O)C(NS(=O)(=O)C2=C(Cl)C(Cl)=CC(=C2)C(O)=O)=C1C)C1=CC=CC=C1","-","EN300-00517","266","3,4-Dichloro-5-(1,5-dimethyl-3-oxo-2-phenyl-2,3-dihydro-1H-pyrazol-4-ylsulfamoyl)-benzoic acid","-","A55638","25489863","-","-","155.0 - 157.0","?C","156.0","Celsius"
"OC(=O)C1=CC(=C(Cl)C=C1)S(=O)(=O)N1CCC2=C1C=CC=C2","-","EN300-00518","267","4-Chloro-3-(2,3-dihydro-indole-1-sulfonyl)-benzoic acid","-","A55638","25489863","-","-","195.0 - 197.0","?C","196.0","Celsius"
"OC(=O)C1=CC(=C(Cl)C=C1)S(=O)(=O)NCC1=CC=CO1","-","EN300-00523","268","4-Chloro-3-[(furan-2-ylmethyl)-sulfamoyl]-benzoic acid","-","A55638","25489863","-","-","133.0 - 135.0","?C","134.0","Celsius"
"CN(C1=CC=CC=C1)S(=O)(=O)C1=CC(=CC=C1)C(O)=O","-","EN300-00526","269","3-(Methyl-phenyl-sulfamoyl)-benzoic acid","-","A55638","25489863","-","-","148.0 - 152.0","?C","150.0","Celsius"
"CCN(CC)S(=O)(=O)C1=CC(=CC=C1)C(=O)NCC(O)=O","-","EN300-00527","270","(3-Diethylsulfamoyl-benzoylamino)-acetic acid","-","A55638","25489863","-","-","69.0 - 71.0","?C","70.0","Celsius"
"CN(C1=CC=C(C)C=C1)S(=O)(=O)C1=CC(=CC=C1)C(O)=O","-","EN300-00529","271","3-(Methyl-p-tolyl-sulfamoyl)-benzoic acid","-","A55638","25489863","-","-","162.0 - 164.0","?C","163.0","Celsius"
"COC1=C(C=C(C=C1)S(=O)(=O)N1CCCCCC1)C(O)=O","-","EN300-00532","272","5-(Azepane-1-sulfonyl)-2-methoxy-benzoic acid","-","A55638","25489863","-","-","114.0 - 116.0","?C","115.0","Celsius"
"CNS(=O)(=O)C1=CC(=CC=C1)C(O)=O","35623-11-1","EN300-00533","273","3-[(methylamino)sulfonyl]benzoic acid","-","A55638","25489863","-","-","209.0 - 211.0","?C","210.0","Celsius"
"OC(=O)C1=C(Cl)C=CC(=C1)S(=O)(=O)NC1=CC=C(Br)C=C1","-","EN300-00535","274","5-(4-Bromo-phenylsulfamoyl)-2-chloro-benzoic acid","-","A55638","25489863","-","-","217.0 - 219.0","?C","218.0","Celsius"
"OC(=O)C1=CC(NS(=O)(=O)C2=CC(Cl)=C(Cl)C=C2)=CC=C1","-","EN300-00537","275","3-(3,4-Dichloro-benzenesulfonylamino)-benzoic acid","-","A55638","25489863","-","-","254.0 - 256.0","?C","255.0","Celsius"
"COC1=CC=C(C=C1)S(=O)(=O)NC1=C(C=CC=C1)C(O)=O","38957-44-7","EN300-00540","276","2-(4-Methoxy-benzenesulfonylamino)-benzoic acid","-","A55638","25489863","-","-","183.0 - 185.0","?C","184.0","Celsius"
"OC(=O)C1=CC(=CC=C1)S(=O)(=O)N(CC=C)C1=C(Cl)C=CC=C1","-","EN300-00541","277","3-[Allyl-(2-chloro-phenyl)-sulfamoyl]-benzoic acid","-","A55638","25489863","-","-","103.0 - 105.0","?C","104.0","Celsius"
"CSCCC(NS(=O)(=O)C1=CC2=C(OCCO2)C=C1)C(O)=O","-","EN300-00545","278","2-(2,3-Dihydro-benzo[1,4]dioxine-6-sulfonylamino)-4-methylsulfanyl-butyric acid","-","A55638","25489863","-","-","93.0 - 96.0","?C","94.5","Celsius"
"COC1=CC=C(C=C1)S(=O)(=O)NC(CCC(N)=O)C(O)=O","-","EN300-00546","279","4-Carbamoyl-2-(4-methoxy-benzenesulfonylamino)-butyric acid","-","A55638","25489863","-","-","171.0 - 173.0","?C","172.0","Celsius"
"CN(C1=CC=C(OCC(O)=O)C=C1)S(=O)(=O)C1=CC=C(C)C=C1","-","EN300-00548","280","{4-[Methyl-(toluene-4-sulfonyl)-amino]-phenoxy}-acetic acid","-","A55638","25489863","-","-","152.0 - 154.0","?C","153.0","Celsius"
"CN(C1=CC=C(OCC(O)=O)C=C1)S(=O)(=O)C1=CC=CS1","-","EN300-00552","281","{4-[Methyl-(thiophene-2-sulfonyl)-amino]-phenoxy}-acetic acid","-","A55638","25489863","-","-","145.0 - 147.0","?C","146.0","Celsius"
"OC(=O)C1CC2=C(CN1S(=O)(=O)C1=CC=C(F)C=C1)C=CC=C2","-","EN300-00553","282","2-(4-Fluoro-benzenesulfonyl)-1,2,3,4-tetrahydro-isoquinoline-3-carboxylic acid","-","A55638","25489863","-","-","99.0 - 101.0","?C","100.0","Celsius"
"OC(=O)C1CCN(CC1)S(=O)(=O)C1=C2N=S=NC2=CC=C1","-","EN300-00557","283","7-[(4-carboxypiperidin-1-yl)sulfonyl]-2,1,3-benzothiadiazol","-","A55638","25489863","-","-","232.0 - 234.0","?C","233.0","Celsius"
"CCOC1=CC=C(C=C1)S(=O)(=O)N(C)C1=CC=C(OCC(O)=O)C=C1","-","EN300-00561","284","{4-[(4-Ethoxy-benzenesulfonyl)-methyl-amino]-phenoxy}-acetic acid","-","A55638","25489863","-","-","82.0 - 84.0","?C","83.0","Celsius"
"CC1CC(C)CN(C1)S(=O)(=O)C1=CC=C(C=C1)C(O)=O","-","EN300-00564","285","4-(3,5-Dimethyl-piperidine-1-sulfonyl)-benzoic acid","-","A55638","25489863","-","-","275.0 - 277.0","?C","276.0","Celsius"
"OC(=O)C1=CC=C(C=C1)S(=O)(=O)N1CCC2=C(C1)C=CC=C2","-","EN300-00565","286","4-(3,4-Dihydro-1H-isoquinoline-2-sulfonyl)-benzoic acid","-","A55638","25489863","-","-","272.0 - 274.0","?C","273.0","Celsius"
"CN(C1=CC(Cl)=CC=C1)S(=O)(=O)C1=CC(=CC=C1)C(O)=O","-","EN300-00567","287","3-[(3-Chloro-phenyl)-methyl-sulfamoyl]-benzoic acid","-","A55638","25489863","-","-","162.0 - 164.0","?C","163.0","Celsius"
"OC(=O)C1=CC=C(NS(=O)(=O)C2=C(Cl)SC(Cl)=C2)C=C1","-","EN300-00569","288","4-(2,5-Dichloro-thiophene-3-sulfonylamino)-benzoic acid","-","A55638","25489863","-","-","189.0 - 191.0","?C","190.0","Celsius"
"CCN(C1=CC=CC=C1)S(=O)(=O)C1=C(C)C=CC(=C1)C(O)=O","-","EN300-00570","289","3-(Ethyl-phenyl-sulfamoyl)-4-methyl-benzoic acid","-","A55638","25489863","-","-","160.0 - 162.0","?C","161.0","Celsius"
"COC1=C(C=C(C=C1)S(=O)(=O)N1CCC2=C1C=CC=C2)C(O)=O","-","EN300-00576","290","5-(2,3-Dihydro-indole-1-sulfonyl)-2-methoxy-benzoic acid","-","A55638","25489863","-","-","136.0 - 138.0","?C","137.0","Celsius"
"OC(=O)C1=C(Cl)C=CC(=C1)S(=O)(=O)NCCCN1CCCC1=O","-","EN300-00577","291","2-Chloro-5-[3-(2-oxo-pyrrolidin-1-yl)-propylsulfamoyl]-benzoic acid","-","A55638","25489863","-","-","98.0 - 100.0","?C","99.0","Celsius"
"OC(=O)C1=CC=C(C=C1)S(=O)(=O)NC1=C(Cl)C=CC=C1","-","EN300-00581","292","4-(2-Chloro-phenylsulfamoyl)-benzoic acid","-","A55638","25489863","-","-","111.0 - 113.0","?C","112.0","Celsius"
"OC(=O)C=CC1=CC=C(C=C1)S(=O)(=O)N1CCC2=C1C=CC=C2","-","EN300-00588","293","3-[4-(2,3-Dihydro-indole-1-sulfonyl)-phenyl]-acrylic acid","-","A55638","25489863","-","-","199.0 - 201.0","?C","200.0","Celsius"
"COC1=CC=C(NS(=O)(=O)C2=CC=C(C=CC(O)=O)C=C2)C=C1","-","EN300-00589","294","3-[4-(4-Methoxy-phenylsulfamoyl)-phenyl]-acrylic acid","-","A55638","25489863","-","-","238.0 - 240.0","?C","239.0","Celsius"
"COC1=C(C=CC=C1)N(C)S(=O)(=O)C1=CC(C(O)=O)=C(Cl)C=C1","-","EN300-00591","295","2-Chloro-5-[(2-methoxy-phenyl)-methyl-sulfamoyl]-benzoic acid","-","A55638","25489863","-","-","179.0 - 181.0","?C","180.0","Celsius"
"OC(=O)C=CC1=CC=C(C=C1)S(=O)(=O)NCC1=CC=CO1","-","EN300-00593","296","3-{4-[(Furan-2-ylmethyl)-sulfamoyl]-phenyl}-acrylic acid","-","A55638","25489863","-","-","213.0 - 215.0","?C","214.0","Celsius"
"COC1=CC=C(C=C1)N(CC=C)S(=O)(=O)C1=CC(C(O)=O)=C(Cl)C=C1","-","EN300-00596","297","5-[Allyl-(4-methoxy-phenyl)-sulfamoyl]-2-chloro-benzoic acid","-","A55638","25489863","-","-","109.0 - 111.0","?C","110.0","Celsius"
"OC(=O)C1=CC(=CC=C1)S(=O)(=O)N1CCN(CC1)C1=CC=C(F)C=C1","-","EN300-00599","298","3-[4-(4-Fluoro-phenyl)-piperazine-1-sulfonyl]-benzoic acid","-","A55638","25489863","-","-","129.0 - 131.0","?C","130.0","Celsius"
"OC(=O)C1=C2C=C(C=CC2=NC(O)=C1)S(=O)(=O)N1CCOCC1","-","EN300-00600","299","2-Hydroxy-6-(morpholine-4-sulfonyl)-quinoline-4-carboxylic acid","-","A55638","25489863","-","-","304.0 - 306.0","?C","305.0","Celsius"
"OC(=O)C=CC1=CC=C(C=C1)S(=O)(=O)NC1=CC(=CC=C1)C(F)(F)F","-","EN300-00602","300","3-[4-(3-Trifluoromethyl-phenylsulfamoyl)-phenyl]-acrylic acid","-","A55638","25489863","-","-","224.0 - 226.0","?C","225.0","Celsius"
"OC(=O)C1=CC=C(C=C1)S(=O)(=O)NC1=CC(=CC=C1)C(F)(F)F","-","EN300-00610","301","4-(3-Trifluoromethyl-phenylsulfamoyl)-benzoic acid","-","A55638","25489863","-","-","221.0 - 223.0","?C","222.0","Celsius"
"OC(=O)C1=CC=C(C=C1)S(=O)(=O)NCC1=CC=CO1","-","EN300-00615","302","4-[(Furan-2-ylmethyl)-sulfamoyl]-benzoic acid","-","A55638","25489863","-","-","229.0 - 231.0","?C","230.0","Celsius"
"OC(=O)C1=C(NS(=O)(=O)C2=CC(Cl)=C(Cl)C=C2)C=CC=C1","-","EN300-00616","303","2-(3,4-Dichloro-benzenesulfonylamino)-benzoic acid","-","A55638","25489863","-","-","143.0 - 147.0","?C","145.0","Celsius"
"CCN(CC)S(=O)(=O)C1=CC2=C(C=C1)N=C(O)C=C2C(O)=O","-","EN300-00618","304","6-Diethylsulfamoyl-2-hydroxy-quinoline-4-carboxylic acid","-","A55638","25489863","-","-","310.0 - 312.0","?C","311.0","Celsius"
"OC(=O)C1=CC=C(NS(=O)(=O)C2=CC=C(F)C=C2)C=C1","-","EN300-00627","305","4-(4-Fluoro-benzenesulfonylamino)-benzoic acid","-","A55638","25489863","-","-","240.0 - 242.0","?C","241.0","Celsius"
"CC1=C(NS(=O)(=O)C2=CC=C(C=C2)C(O)=O)C=CC=C1","-","EN300-00628","306","4-o-Tolylsulfamoyl-benzoic acid","-","A55638","25489863","-","-","256.0 - 258.0","?C","257.0","Celsius"
"COC1=C(C=C(C=C1)C(O)=O)S(=O)(=O)N1CCCCCC1","-","EN300-00637","307","3-(Azepane-1-sulfonyl)-4-methoxy-benzoic acid","-","A55638","25489863","-","-","190.0 - 194.0","?C","192.0","Celsius"
"OC(=O)CCS(=O)(=O)C1=C(Cl)C=CC=C1","-","EN300-00639","308","3-(2-Chloro-benzenesulfonyl)-propionic acid","-","A55638","25489863","-","-","132.0 - 134.0","?C","133.0","Celsius"
"CC1=CC=C(C=C1)S(=O)(=O)CCC(O)=O","10154-76-4","EN300-00640","309","3-(Toluene-4-sulfonyl)-propionic acid","-","A55638","25489863","-","-","108.0 - 110.0","?C","109.0","Celsius"
"CCN(CC)S(=O)(=O)C1=CC=C(C=C1)C(=O)NCC(O)=O","-","EN300-00641","310","(4-Diethylsulfamoyl-benzoylamino)-acetic acid","-","A55638","25489863","-","-","143.0 - 145.0","?C","144.0","Celsius"
"COC1=C(C=C(C=C1)C(O)=O)S(=O)(=O)N1CC(C)CC(C)C1","-","EN300-00644","311","3-(3,5-Dimethyl-piperidine-1-sulfonyl)-4-methoxy-benzoic acid","-","A55638","25489863","-","-","262.0 - 264.0","?C","263.0","Celsius"
"OC(=O)CN(CC1=CC=CC=C1)S(=O)(=O)C1=CC=C(Cl)C=C1","-","EN300-00649","312","[Benzyl-(4-chloro-benzenesulfonyl)-amino]-acetic acid","-","A55638","25489863","-","-","149.0 - 151.0","?C","150.0","Celsius"
"CC1=C(NS(=O)(=O)C2=CC=C(F)C=C2)C=C(C=C1)C(O)=O","-","EN300-00652","313","3-(4-Fluoro-benzenesulfonylamino)-4-methyl-benzoic acid","-","A55638","25489863","-","-","234.0 - 236.0","?C","235.0","Celsius"
"COC1=C(C=C(C=C1)C(O)=O)S(=O)(=O)NC1=CC=C(C)C=C1","-","EN300-00656","314","4-Methoxy-3-p-tolylsulfamoyl-benzoic acid","-","A55638","25489863","-","-","258.0 - 260.0","?C","259.0","Celsius"
"COC1=C(C=C(C=CC(O)=O)C=C1)S(=O)(=O)N1CCOCC1","-","EN300-00657","315","3-[4-Methoxy-3-(morpholine-4-sulfonyl)-phenyl]-acrylic acid","-","A55638","25489863","-","-","238.0 - 240.0","?C","239.0","Celsius"
"COC1=C(C=C(C=C1)C(O)=O)S(=O)(=O)N(C)CC1=CC=CC=C1","-","EN300-00658","316","3-(Benzyl-methyl-sulfamoyl)-4-methoxy-benzoic acid","-","A55638","25489863","-","-","180.0 - 182.0","?C","181.0","Celsius"
"CCN(CC1=CC=CC=C1)S(=O)(=O)C1=C(OC)C=CC(=C1)C(O)=O","-","EN300-00660","317","3-(Benzyl-ethyl-sulfamoyl)-4-methoxy-benzoic acid","-","A55638","25489863","-","-","102.0 - 105.0","?C","104.0","Celsius"
"CCOC1=CC2=C(C=C1)N=C(NS(=O)(=O)C1=C(Cl)C=C(Cl)C(=C1)C(O)=O)S2","-","EN300-00662","318","2,4-Dichloro-5-(6-ethoxy-benzothiazol-2-ylsulfamoyl)-benzoic acid","-","A55638","25489863","-","-","163.0 - 165.0","?C","164.0","Celsius"
"COC1=C(C=C(C=CC(O)=O)C=C1)S(=O)(=O)N1CCCCC1","-","EN300-00664","319","3-[4-Methoxy-3-(piperidine-1-sulfonyl)-phenyl]-acrylic acid","-","A55638","25489863","-","-","219.0 - 221.0","?C","220.0","Celsius"
"COC1=C(C=C(C=C1)C(O)=O)S(=O)(=O)NCC1=CC=NC=C1","-","EN300-00667","320","4-Methoxy-3-[(pyridin-4-ylmethyl)-sulfamoyl]-benzoic acid","-","A55638","25489863","-","-","225.0 - 227.0","?C","226.0","Celsius"
"OC(=O)C1=CC(=CC=C1)S(=O)(=O)N(CC=C)C1=CC=CC=C1","-","EN300-00670","321","3-(Allyl-phenyl-sulfamoyl)-benzoic acid","-","A55638","25489863","-","-","103.0 - 105.0","?C","104.0","Celsius"
"COC1=C(C=C(C=C1)C(O)=O)S(=O)(=O)N1CCCC2=C1C=CC=C2","-","EN300-00671","322","3-(3,4-Dihydro-2H-quinoline-1-sulfonyl)-4-methoxy-benzoic acid","-","A55638","25489863","-","-","211.0 - 213.0","?C","212.0","Celsius"
"COC1=C(C=C(C=C1)C(O)=O)S(=O)(=O)N1CCCC1","-","EN300-00672","323","4-Methoxy-3-(pyrrolidine-1-sulfonyl)-benzoic acid","-","A55638","25489863","-","-","218.0 - 220.0","?C","219.0","Celsius"
"CN(CC(O)=O)S(=O)(=O)C1=CC=C(C)C=C1","2644-99-7","EN300-00674","324","[Methyl-(toluene-4-sulfonyl)-amino]-acetic acid","-","A55638","25489863","-","-","228.0 - 230.0","?C","229.0","Celsius"
"CC1=CC=C(C=C1)S(=O)(=O)N1CCCC1C(O)=O","-","EN300-00677","325","1-(Toluene-4-sulfonyl)-pyrrolidine-2-carboxylic acid","-","A55638","25489863","-","-","96.0 - 98.0","?C","97.0","Celsius"
"OC(=O)C1=C(Cl)C=C(Cl)C(=C1)S(=O)(=O)NCC1=CC=CO1","-","EN300-00681","326","2,4-Dichloro-5-[(furan-2-ylmethyl)-sulfamoyl]-benzoic acid","-","A55638","25489863","-","-","149.0 - 151.0","?C","150.0","Celsius"