"SMILES","CASRN","EXTERNALID","N","NAME","NAME","ARTICLEID","PUBMEDID","PAGE","TABLE","Melting Point {measured}","UNIT {Melting Point}","Melting Point {measured, converted}","UNIT {Melting Point}"
"CN(C1=CC=C(O)C=C1)S(=O)(=O)C1=CC=CS1","-","EN300-09399","3272","N-(4-hydroxyphenyl)-N-methylthiophene-2-sulfonamide","-","A55638","25489863","-","-","149.0 - 151.0","?C","150.0","Celsius"
"OC(=O)C1=CC2=C(C=C1)C(=O)N(C2=O)C1=CC=C(F)C=C1","110768-19-9","EN300-09400","3273","2-(4-fluorophenyl)-1,3-dioxoisoindoline-5-carboxylic acid","-","A55638","25489863","-","-","295.0 - 297.0","?C","296.0","Celsius"
"OC(=O)C1=C(C=CC=C1)C(=O)N1CCCCC1","20320-44-9","EN300-09401","3274","2-(piperidin-1-ylcarbonyl)benzoic acid","-","A55638","25489863","-","-","109.0 - 111.0","?C","110.0","Celsius"
"OC(=O)CSCC(=O)N1CCOCC1","62770-06-3","EN300-09402","3275","[(2-morpholin-4-yl-2-oxoethyl)thio]acetic acid","-","A55638","25489863","-","-","119.0 - 121.0","?C","120.0","Celsius"
"OC(=O)CCNS(=O)(=O)C1=CC=C(Cl)C=C1","36974-65-9","EN300-09405","3276","3-{[(4-chlorophenyl)sulfonyl]amino}propanoic acid","-","A55638","25489863","-","-","155.0 - 159.0","?C","157.0","Celsius"
"FC1=CC2=C(C=C1)N=C(NC(=O)CCl)S2","263239-23-2","EN300-09408","3277","2-chloro-N-(6-fluoro-1,3-benzothiazol-2-yl)acetamide","-","A55638","25489863","-","-","170.0 - 172.0","?C","171.0","Celsius"
"CC(OC1=CC=C(C=C1)C(C)=O)C(O)=O","91143-71-4","EN300-09411","3280","2-(4-acetylphenoxy)propanoic acid","-","A55638","25489863","-","-","158.0 - 161.0","?C","160.0","Celsius"
"NNC(=O)CC1=CC=C(Cl)C=C1","57676-51-4","EN300-09414","3281","2-(4-Chlorophenyl)acetohydrazide","-","A55638","25489863","-","-","165.0 - 167.0","?C","166.0","Celsius"
"CC(C)N(C)S(=O)(=O)C1=CC(=CC=C1)C(O)=O","-","EN300-09441","3283","3-{[isopropyl(methyl)amino]sulfonyl}benzoic acid","-","A55638","25489863","-","-","168.0 - 170.0","?C","169.0","Celsius"
"CC(C)NS(=O)(=O)C1=CC(=CC=C1)C(O)=O","-","EN300-09442","3284","3-[(isopropylamino)sulfonyl]benzoic acid","-","A55638","25489863","-","-","162.0 - 164.0","?C","163.0","Celsius"
"CC(C)CNC(=O)C1=C(N)C=CC=C1","-","EN300-09443","3285","2-amino-N-isobutylbenzamide","-","A55638","25489863","-","-","109.0 - 111.0","?C","110.0","Celsius"
"NC1=C(C=CC=C1)C(=O)NCC=C","4943-82-2","EN300-09444","3286","N-allyl-2-aminobenzamide","-","A55638","25489863","-","-","92.0 - 94.0","?C","93.0","Celsius"
"NC1=C(C=CC=C1)C(=O)N1CCCC1","52745-20-7","EN300-09445","3287","2-(pyrrolidin-1-ylcarbonyl)aniline","-","A55638","25489863","-","-","85.0 - 89.0","?C","87.0","Celsius"
"CCOC(=O)C1=C(C)C2=C(S1)N=CN=C2Cl","101667-98-5","EN300-09452","3288","ethyl 4-chloro-5-methylthieno[2,3-d]pyrimidine-6-carboxylate","-","A55638","25489863","-","-","113.0 - 115.0","?C","114.0","Celsius"
"CC1=CC(=NO1)N1C(C)=CC(C(=O)CCl)=C1C","-","EN300-09457","3289","2-chloro-1-[2,5-dimethyl-1-(5-methylisoxazol-3-yl)-1H-pyrrol-3-yl]ethanone","-","A55638","25489863","-","-","110.0 - 112.0","?C","111.0","Celsius"
"OC(=O)C1=NN(C=C1O)C1=CC=CC=C1","-","EN300-09466","3291","4-hydroxy-1-phenyl-1H-pyrazole-3-carboxylic acid","-","A55638","25489863","-","-","154.0 - 156.0","?C","155.0","Celsius"
"COC1=CC(C(=O)CCl)=C(OC)C=C1","1204-22-4","EN300-09469","3292","2-chloro-1-(2,5-dimethoxyphenyl)ethanone","-","A55638","25489863","-","-","87.0 - 89.0","?C","88.0","Celsius"
"O=C(CC#N)C1=CC2=C(O1)C=CC=C2","5149-69-9","EN300-09471","3293","3-(1-benzofuran-2-yl)-3-oxopropanenitrile","-","A55638","25489863","-","-","146.0 - 148.0","?C","147.0","Celsius"
"CC(C)(C)C1CCC2=C(C1)C=C(S2)C1=NN=C(S)O1","-","EN300-09473","3294","5-(5-tert-butyl-4,5,6,7-tetrahydro-1-benzothien-2-yl)-1,3,4-oxadiazole-2-thiol","-","A55638","25489863","-","-","176.0 - 178.0","?C","177.0","Celsius"
"NC1=C(C=O)C(=O)C2=C(O1)C=CC(F)=C2","288399-47-3","EN300-09479","3295","2-amino-6-fluoro-4-oxo-4H-chromene-3-carbaldehyde","-","A55638","25489863","-","-","251.0 - 253.0","?C","252.0","Celsius"
"CCC1(C)NC(=O)N(CC(O)=O)C1=O","-","EN300-09483","3296","(4-ethyl-4-methyl-2,5-dioxoimidazolidin-1-yl)acetic acid","-","A55638","25489863","-","-","156.0 - 158.0","?C","157.0","Celsius"
"ClCC(=O)NC1(CCCC1)C#N","78734-65-3","EN300-09487","3297","2-chloro-N-(1-cyanocyclopentyl)acetamide","-","A55638","25489863","-","-","74.0 - 76.0","?C","75.0","Celsius"
"COC1=C(NC(=O)C2=CC=C(NC(=O)C(C)Cl)C=C2)C=CC=C1","-","EN300-09488","3298","4-[(2-chloropropanoyl)amino]-N-(2-methoxyphenyl)benzamide","-","A55638","25489863","-","-","149.0 - 151.0","?C","150.0","Celsius"
"ClCC12CC3CC(CC(C3)C1)C2","770-70-7","EN300-09493","3299","1-(chloromethyl)adamantane","-","A55638","25489863","-","-","38.0 - 42.0","?C","40.0","Celsius"
"CCOC1=CC(=CC=C1)C(N)=S","747411-11-6","EN300-09494","3300","3-ethoxybenzenecarbothioamide","-","A55638","25489863","-","-","118.0 - 120.0","?C","119.0","Celsius"
"ClCC(=O)NC1=CC(=CC=C1)S(=O)(=O)N=C1CCCN1","-","EN300-09499","3301","2-chloro-N-(3-{[(2E)-pyrrolidin-2-ylideneamino]sulfonyl}phenyl)acetamide","-","A55638","25489863","-","-","156.0 - 160.0","?C","158.0","Celsius"
"CC1=C(CC2=CC=CC=C2)N=C(N1)SCC(O)=O","-","EN300-09500","3302","[(4-benzyl-5-methyl-1H-imidazol-2-yl)thio]acetic acid","-","A55638","25489863","-","-","183.0 - 185.0","?C","184.0","Celsius"
"OC(=O)COC1=CC2=C(OC3=C2CCCC3)C=C1","-","EN300-09505","3303","(6,7,8,9-tetrahydrodibenzo[b,d]furan-2-yloxy)acetic acid","-","A55638","25489863","-","-","188.0 - 190.0","?C","189.0","Celsius"
"CC1=C(C)C=C(C=C1)C1=NN=C(S)O1","-","EN300-09506","3304","5-(3,4-dimethylphenyl)-1,3,4-oxadiazole-2-thiol","-","A55638","25489863","-","-","195.0 - 197.0","?C","196.0","Celsius"
"NC1=CC(=NN1C1=CC=CC=C1)C1CCCC1","-","EN300-09508","3305","3-cyclopentyl-1-phenyl-1H-pyrazol-5-amine","-","A55638","25489863","-","-","80.0 - 82.0","?C","81.0","Celsius"
"CN(C)C(=O)C1=CC=C(N)C=C1","6331-71-1","EN300-09518","3307","4-amino-N,N-dimethylbenzamide","-","A55638","25489863","-","-","151.0 - 153.0","?C","152.0","Celsius"
"COC1=C(O)C(O)=CC(C=O)=C1","3934-87-0","EN300-09520","3309","3,4-Dihydroxy-5-methoxybenzaldehyde","-","A55638","25489863","-","-","131.0 - 134.0","?C","132.0","Celsius"
"CCN1N=NC2=C1C=CC(=C2)C(O)=O","-","EN300-09521","3310","1-ethyl-1H-1,2,3-benzotriazole-5-carboxylic acid","-","A55638","25489863","-","-","228.0 - 230.0","?C","229.0","Celsius"
"CCCC1=NOC(N)=C1","-","EN300-09525","3311","3-propylisoxazol-5-amine","-","A55638","25489863","-","-","54.0 - 58.0","?C","56.0","Celsius"
"COC1=C(C=CC=C1)C(N)=S","42590-97-6","EN300-09526","3312","2-methoxybenzenecarbothioamide","-","A55638","25489863","-","-","113.0 - 115.0","?C","114.0","Celsius"
"NC1=CC(=NO1)C1=CC=C(Cl)C=C1","33866-48-7","EN300-09527","3313","3-(4-chlorophenyl)isoxazol-5-amine","-","A55638","25489863","-","-","164.0 - 166.0","?C","165.0","Celsius"
"OC(=O)C1=C(NC(=O)C2=CC=CO2)SC2=C1CCC2","-","EN300-09545","3314","2-(2-furoylamino)-5,6-dihydro-4H-cyclopenta[b]thiophene-3-carboxylic acid","-","A55638","25489863","-","-","242.0 - 244.0","?C","243.0","Celsius"
"CCOC1=C(O)C(Br)=CC(=C1)C#N","330462-57-2","EN300-09546","3315","3-bromo-5-ethoxy-4-hydroxybenzonitrile","-","A55638","25489863","-","-","140.0 - 142.0","?C","141.0","Celsius"
"CC(C)OC1=CC=C(C=C1)C(C)=O","4074-51-5","EN300-09552","3316","1-(4-isopropoxyphenyl)ethanone","-","A55638","25489863","-","-","42.0 - 44.0","?C","43.0","Celsius"
"CN(C)C(=O)C1=CC=C(NC(=O)CCl)C=C1","-","EN300-09553","3317","4-[(chloroacetyl)amino]-N,N-dimethylbenzamide","-","A55638","25489863","-","-","177.0 - 179.0","?C","178.0","Celsius"
"COC1=C(OC(F)F)C(Cl)=CC(C=O)=C1","-","EN300-09555","3318","3-chloro-4-(difluoromethoxy)-5-methoxybenzaldehyde","-","A55638","25489863","-","-","75.0 - 77.0","?C","76.0","Celsius"
"CC1=NON=C1N","17647-70-0","EN300-09557","3319","4-methyl-1,2,5-oxadiazol-3-amine","-","A55638","25489863","-","-","56.0 - 58.0","?C","57.0","Celsius"
"CC1=C(C=CC=C1)C1=NN(C=C1C(O)=O)C1=CC=CC=C1","-","EN300-09561","3320","3-(2-methylphenyl)-1-phenyl-1H-pyrazole-4-carboxylic acid","-","A55638","25489863","-","-","177.0 - 179.0","?C","178.0","Celsius"
"OC(=O)CCCC1=NC2=C(C=CC=C2)C(=O)N1","-","EN300-09566","3321","4-(4-oxo-3,4-dihydroquinazolin-2-yl)butanoic acid","-","A55638","25489863","-","-","269.0 - 271.0","?C","270.0","Celsius"
"OC(=O)C1=C(C=CC=C1)S(=O)(=O)N1CCCCC1","-","EN300-09569","3322","2-(piperidin-1-ylsulfonyl)benzoic acid","-","A55638","25489863","-","-","106.0 - 108.0","?C","107.0","Celsius"
"OC(=O)CCNS(=O)(=O)C1=CC2=C(C=CC=C2)C=C1","100394-14-7","EN300-09570","3323","3-[(2-naphthylsulfonyl)amino]propanoic acid","-","A55638","25489863","-","-","170.0 - 180.0","?C","175.0","Celsius"
"OC(=O)C1=CC(=C(Cl)C=C1)S(=O)(=O)NCC1CCCO1","-","EN300-09571","3324","4-chloro-3-{[(tetrahydrofuran-2-ylmethyl)amino]sulfonyl}benzoic acid","-","A55638","25489863","-","-","207.0 - 209.0","?C","208.0","Celsius"
"COC1=C(OC(F)F)C=C(C=O)C=C1","-","EN300-09575","3325","3-(difluoromethoxy)-4-methoxybenzaldehyde","-","A55638","25489863","-","-","34.0 - 38.0","?C","36.0","Celsius"
"CC(C)C1=CC=C(C=C1)C1=NN(C=C1C(O)=O)C1=CC=CC=C1","-","EN300-09578","3326","3-(4-isopropylphenyl)-1-phenyl-1H-pyrazole-4-carboxylic acid","-","A55638","25489863","-","-","222.0 - 224.0","?C","223.0","Celsius"
"FC1=CC=C(C=C1)C1=NC(CCl)=CS1","-","EN300-09587","3328","4-(chloromethyl)-2-(4-fluorophenyl)-1,3-thiazole","-","A55638","25489863","-","-","54.0 - 56.0","?C","55.0","Celsius"
"COC1=CC=C(C=C1)C(=O)C=C1NC(=O)CS1","-","EN300-09588","3329","(2E)-2-[2-(4-methoxyphenyl)-2-oxoethylidene]-1,3-thiazolidin-4-one","-","A55638","25489863","-","-","210.0 - 212.0","?C","211.0","Celsius"
"CC1=CC=C(O1)C1=NN(C=C1C(O)=O)C1=CC=CC=C1","-","EN300-09590","3331","3-(5-methyl-2-furyl)-1-phenyl-1H-pyrazole-4-carboxylic acid","-","A55638","25489863","-","-","160.0 - 163.0","?C","162.0","Celsius"
"OC(=O)CC1=C(N2CCN=C2S1)C1=CC=CS1","-","EN300-09591","3332","(3-thien-2-yl-5,6-dihydroimidazo[2,1-b][1,3]thiazol-2-yl)acetic acid","-","A55638","25489863","-","-","220.0 - 222.0","?C","221.0","Celsius"
"COC1=C(CN2CCCCC2)C=C(C=C1)C(C)=O","93201-36-6","EN300-09594","3333","1-[4-methoxy-3-(piperidin-1-ylmethyl)phenyl]ethanone","-","A55638","25489863","-","-","54.0 - 56.0","?C","55.0","Celsius"
"COC1=C(CN2CCOCC2)C=C(C=C1)C(C)=O","-","EN300-09600","3334","1-[4-methoxy-3-(morpholin-4-ylmethyl)phenyl]ethanone","-","A55638","25489863","-","-","58.0 - 60.0","?C","59.0","Celsius"
"CC(=O)C(CC1=CC=CC=C1)NC(=O)CCl","-","EN300-09603","3335","N-(1-benzyl-2-oxopropyl)-2-chloroacetamide","-","A55638","25489863","-","-","73.0 - 75.0","?C","74.0","Celsius"
"OC(=O)C1CCCCN1C1=NS(=O)(=O)C2=C1C=CC=C2","-","EN300-09607","3336","1-(1,1-dioxido-1,2-benzisothiazol-3-yl)piperidine-2-carboxylic acid","-","A55638","25489863","-","-","185.0 - 187.0","?C","186.0","Celsius"
"CC1CCN(CC1)S(=O)(=O)C1=CC=C(N)C=C1","-","EN300-09614","3338","4-[(4-methylpiperidin-1-yl)sulfonyl]aniline","-","A55638","25489863","-","-","108.0 - 110.0","?C","109.0","Celsius"
"CC1CN(CC(C)O1)S(=O)(=O)C1=CC=C(N)C=C1","-","EN300-09615","3339","4-[(2,6-dimethylmorpholin-4-yl)sulfonyl]aniline","-","A55638","25489863","-","-","199.0 - 203.0","?C","201.0","Celsius"
"CC(Cl)C(=O)NC1=CC(=CC=C1)S(=O)(=O)N1CCCCC1","-","EN300-09622","3340","2-chloro-N-[3-(piperidin-1-ylsulfonyl)phenyl]propanamide","-","A55638","25489863","-","-","163.0 - 165.0","?C","164.0","Celsius"
"CC1=C(NC(=O)CC#N)C=C(Cl)C=C1","63034-97-9","EN300-09624","3341","N-(5-chloro-2-methylphenyl)-2-cyanoacetamide","-","A55638","25489863","-","-","190.0 - 192.0","?C","191.0","Celsius"
"OC(=O)C1=CC2=C(C=C1)C(=O)N(CC1=CC=CC=C1)C2=O","67822-75-7","EN300-09625","3342","2-benzyl-1,3-dioxoisoindoline-5-carboxylic acid","-","A55638","25489863","-","-","198.0 - 200.0","?C","199.0","Celsius"
"OC(=O)C1=CC2=C(C=C1)C(=O)N(CC1=CC=CO1)C2=O","356575-75-2","EN300-09626","3343","2-(2-furylmethyl)-1,3-dioxoisoindoline-5-carboxylic acid","-","A55638","25489863","-","-","172.0 - 176.0","?C","174.0","Celsius"
"OC(=O)CCNS(=O)(=O)C1=CC(Cl)=CC=C1","-","EN300-09634","3344","3-{[(3-chlorophenyl)sulfonyl]amino}propanoic acid","-","A55638","25489863","-","-","143.0 - 145.0","?C","144.0","Celsius"
"CC(NC(=O)C1=CC(=CC=C1)[N+]([O-])=O)C(O)=O","-","EN300-09636","3345","(2S)-2-[(3-nitrobenzoyl)amino]propanoic acid","-","A55638","25489863","-","-","159.0 - 161.0","?C","160.0","Celsius"
"CC(NC(=O)C1=CC(C)=CC=C1)C(O)=O","-","EN300-09638","3346","2-[(3-methylbenzoyl)amino]propanoic acid","-","A55638","25489863","-","-","117.0 - 119.0","?C","118.0","Celsius"
"CN(CC1=CC=CC=C1)S(=O)(=O)C1=CC=C(N)C=C1","-","EN300-09640","3347","4-amino-N-benzyl-N-methylbenzenesulfonamide","-","A55638","25489863","-","-","127.0 - 131.0","?C","129.0","Celsius"
"CCCN1C(S)=NN=C1C1=CC=NC=C1","90871-45-7","EN300-09643","3348","4-propyl-5-pyridin-4-yl-4H-1,2,4-triazole-3-thiol","-","A55638","25489863","-","-","258.0 - 260.0","?C","259.0","Celsius"
"CN1C(S)=NN=C1CC1=CC=CC=C1","51291-31-7","EN300-09644","3349","5-benzyl-4-methyl-4H-1,2,4-triazole-3-thiol","-","A55638","25489863","-","-","158.0 - 160.0","?C","159.0","Celsius"
"SC1=NN=C(N1)C1=CC=NC=C1","1477-24-3","EN300-09645","3350","5-pyridin-4-yl-4H-1,2,4-triazole-3-thiol","-","A55638","25489863","-","-","308.0 - 313.0","?C","310.0","Celsius"
"OC(=O)CSCC1=CC(Cl)=CC=C1","34722-33-3","EN300-09651","3351","[(3-chlorobenzyl)thio]acetic acid","-","A55638","25489863","-","-","74.0 - 76.0","?C","75.0","Celsius"
"OC(=O)CSCC1=CC=C(Cl)C=C1","90649-82-4","EN300-09653","3352","[(4-chlorobenzyl)thio]acetic acid","-","A55638","25489863","-","-","57.0 - 59.0","?C","58.0","Celsius"
"OC(=O)C1=CC=C(CSC2=CC=CC=C2)C=C1","88382-49-4","EN300-09656","3354","4-[(Phenylthio)methyl]benzoic acid","-","A55638","25489863","-","-","179.0 - 181.0","?C","180.0","Celsius"
"NC1=CC=C(CC2=NC3=C(S2)C=CC=C3)C=C1","37859-28-2","EN300-09657","3355","4-(1,3-benzothiazol-2-ylmethyl)aniline","-","A55638","25489863","-","-","219.0 - 221.0","?C","220.0","Celsius"
"OC(=O)C1=CC=C(C=C1)N1C(=O)C=CC1=O","17057-04-4","EN300-09658","3356","4-(2,5-Dioxo-2,5-dihydro-1H-pyrrol-1-yl)benzoic acid","-","A55638","25489863","-","-","229.0 - 231.0","?C","230.0","Celsius"
"CN(C)CCCNC(N)=S","-","EN300-09660","3357","N-[3-(dimethylamino)propyl]thiourea","-","A55638","25489863","-","-","66.0 - 68.0","?C","67.0","Celsius"
"COC1=C(OC)C(=CC=C1)C(N)=S","-","EN300-09662","3359","2,3-dimethoxybenzenecarbothioamide","-","A55638","25489863","-","-","146.0 - 148.0","?C","147.0","Celsius"
"CNC(=O)NC(=O)C(Cl)C1=CC=CC=C1","99070-51-6","EN300-09669","3361","2-chloro-N-[(methylamino)carbonyl]-2-phenylacetamide","-","A55638","25489863","-","-","130.0 - 132.0","?C","131.0","Celsius"
"OC(=O)CC1=COC2=C1C=CC(O)=C2","69716-04-7","EN300-09670","3362","(6-hydroxy-1-benzofuran-3-yl)acetic acid","-","A55638","25489863","-","-","127.0 - 129.0","?C","128.0","Celsius"
"CCN(CC)C(=O)C1=CC=C(NC(=O)CCl)C=C1","-","EN300-09679","3363","4-[(chloroacetyl)amino]-N,N-diethylbenzamide","-","A55638","25489863","-","-","115.0 - 117.0","?C","116.0","Celsius"
"CC1=C(Br)C=C(NC(=O)CCl)C=C1","-","EN300-09685","3365","N-(3-bromo-4-methylphenyl)-2-chloroacetamide","-","A55638","25489863","-","-","180.0 - 181.0","?C","180.0","Celsius"
"COC1=C(C=CC=C1)C1=NN(C=C1C(O)=O)C1=CC=CC=C1","-","EN300-09689","3366","3-(2-methoxyphenyl)-1-phenyl-1H-pyrazole-4-carboxylic acid","-","A55638","25489863","-","-","195.0 - 197.0","?C","196.0","Celsius"
"CCC1=CC=C(C=C1)C1=NN(C=C1C(O)=O)C1=CC=CC=C1","-","EN300-09690","3367","3-(4-ethylphenyl)-1-phenyl-1H-pyrazole-4-carboxylic acid","-","A55638","25489863","-","-","208.0 - 210.0","?C","209.0","Celsius"
"OC(=O)C(=CC1=CC=CS1)N1N=NN=C1C1=CC=CC=C1","36283-09-7","EN300-09696","3369","2-(5-phenyl-1H-tetrazol-1-yl)-3-thien-2-ylacrylic acid","-","A55638","25489863","-","-","204.0 - 206.0","?C","205.0","Celsius"
"CCN(CC)C1=NC(=O)C(CC(=O)NC2=CC(=CC=C2)C(O)=O)S1","-","EN300-09700","3370","3-({[2-(diethylamino)-4-oxo-4,5-dihydro-1,3-thiazol-5-yl]acetyl}amino)benzoic acid","-","A55638","25489863","-","-","236.0 - 238.0","?C","237.0","Celsius"
"NC1=C(C=CC=C1)C(=O)N1CCCCC1","39630-25-6","EN300-09702","3371","2-(piperidin-1-ylcarbonyl)aniline","-","A55638","25489863","-","-","79.0 - 83.0","?C","81.0","Celsius"
"CC(C)NCC1=NN=C(O1)C1=CC=C(C=C1)[N+]([O-])=O","-","EN300-09704","3372","N-{[5-(4-nitrophenyl)-1,3,4-oxadiazol-2-yl]methyl}propan-2-amine","-","A55638","25489863","-","-","175.0 - 182.0","?C","178.0","Celsius"
"ClC1=CC=C(C=C1)C1=NN=C(CNC2CC2)O1","-","EN300-09706","3373","N-{[5-(4-chlorophenyl)-1,3,4-oxadiazol-2-yl]methyl}-N-cyclopropylamine","-","A55638","25489863","-","-","104.0 - 106.0","?C","105.0","Celsius"
"CC1=CC(C(=O)CC#N)=C(C)N1CC(F)(F)F","-","EN300-09712","3374","3-[2,5-dimethyl-1-(2,2,2-trifluoroethyl)-1H-pyrrol-3-yl]-3-oxopropanenitrile","-","A55638","25489863","-","-","150.0 - 152.0","?C","151.0","Celsius"
"CC(C)C1=NOC(N)=C1","88786-11-2","EN300-09720","3375","3-isopropylisoxazol-5-amine","-","A55638","25489863","-","-","33.0 - 35.0","?C","34.0","Celsius"
"CC1=NC(CC2=NN=C(S)O2)=CS1","-","EN300-09722","3376","5-[(2-methyl-1,3-thiazol-4-yl)methyl]-1,3,4-oxadiazole-2-thiol","-","A55638","25489863","-","-","194.0 - 196.0","?C","195.0","Celsius"
"CC(=O)N(C1=NC(C=O)=CS1)C1=CC=CC=C1","91973-74-9","EN300-09723","3377","N-(4-formyl-1,3-thiazol-2-yl)-N-phenylacetamide","-","A55638","25489863","-","-","150.0 - 152.0","?C","151.0","Celsius"
"ClC1=CC=C(C=C1)C1=NC(C=O)=CS1","21278-77-3","EN300-09724","3378","2-(4-chlorophenyl)-1,3-thiazole-4-carbaldehyde","-","A55638","25489863","-","-","124.0 - 126.0","?C","125.0","Celsius"
"CCCNC(=S)NN","13431-35-1","EN300-09728","3380","N-propylhydrazinecarbothioamide","-","A55638","25489863","-","-","61.0 - 63.0","?C","62.0","Celsius"
"OC(=O)CSC1=NC2=C(SC(=C2)C2=CC=CC=C2)C(=O)N1CC1=CC=CC=C1","-","EN300-09730","3381","[(3-benzyl-4-oxo-6-phenyl-3,4-dihydrothieno[3,2-d]pyrimidin-2-yl)thio]acetic acid","-","A55638","25489863","-","-","320.0 - 322.0","?C","321.0","Celsius"
"CCOC1=C(OC)C=C(C=C1)C(O)=O","3535-30-6","EN300-09733","3382","4-ethoxy-3-methoxybenzoic acid","-","A55638","25489863","-","-","198.0 - 202.0","?C","200.0","Celsius"
"NC1=C(C=CC=C1)C(=O)NC1CC1","30510-67-9","EN300-09734","3383","2-amino-N-cyclopropylbenzamide","-","A55638","25489863","-","-","135.0 - 136.0","?C","136.0","Celsius"
"CC(C)NC1=NN=C(S)S1","-","EN300-09737","3384","5-(isopropylamino)-1,3,4-thiadiazole-2-thiol","-","A55638","25489863","-","-","194.0 - 196.0","?C","195.0","Celsius"
"COC1=C(OC)C=C(C(O)=O)C(NC(=O)C(C)C)=C1","-","EN300-09739","3385","2-(isobutyrylamino)-4,5-dimethoxybenzoic acid","-","A55638","25489863","-","-","216.0 - 218.0","?C","217.0","Celsius"
"COC1=C(OC)C=C(C(O)=O)C(NC(C)=O)=C1","145352-75-6","EN300-09740","3386","2-(acetylamino)-4,5-dimethoxybenzoic acid","-","A55638","25489863","-","-","229.0 - 231.0","?C","230.0","Celsius"
"COC1=C(OC)C=C(C(O)=O)C(NC(=O)C2CCCCC2)=C1","-","EN300-09741","3387","2-[(cyclohexylcarbonyl)amino]-4,5-dimethoxybenzoic acid","-","A55638","25489863","-","-","155.0 - 157.0","?C","156.0","Celsius"
"FC1=CC=C(C=C1)C1=CC2=C(S1)C(Cl)=NC=N2","-","EN300-09744","3388","4-chloro-6-(4-fluorophenyl)thieno[3,2-d]pyrimidine","-","A55638","25489863","-","-","202.0 - 206.0","?C","204.0","Celsius"
"CNC(=O)C1=CC=C(N)C=C1","6274-22-2","EN300-09745","3389","4-amino-N-methylbenzamide","-","A55638","25489863","-","-","177.0 - 179.0","?C","178.0","Celsius"
"OC(=O)CSCC(=O)NC1=CC=C(F)C=C1","-","EN300-09746","3390","({2-[(4-fluorophenyl)amino]-2-oxoethyl}thio)acetic acid","-","A55638","25489863","-","-","125.0 - 127.0","?C","126.0","Celsius"
"CN(C)C1=C(C=C(C=C1)C(O)=O)[N+]([O-])=O","28096-56-2","EN300-09748","3391","4-(dimethylamino)-3-nitrobenzoic acid","-","A55638","25489863","-","-","198.0 - 200.0","?C","199.0","Celsius"
"NC1=CC=C(C=C1)S(=O)(=O)N1CCC(CC2=CC=CC=C2)CC1","-","EN300-09749","3392","4-[(4-benzylpiperidin-1-yl)sulfonyl]aniline","-","A55638","25489863","-","-","153.0 - 155.0","?C","154.0","Celsius"
"CC1CCCN(C1)S(=O)(=O)C1=CC=C(N)C=C1","-","EN300-09750","3393","4-[(3-methylpiperidin-1-yl)sulfonyl]aniline","-","A55638","25489863","-","-","129.0 - 131.0","?C","130.0","Celsius"