"SMILES","CASRN","EXTERNALID","N","NAME","NAME","ARTICLEID","PUBMEDID","PAGE","TABLE","Melting Point {measured}","UNIT {Melting Point}","Melting Point {measured, converted}","UNIT {Melting Point}"
"OC(=O)CCC1=CC=C(O1)C1=CC=CC=C1","3465-61-0","EN300-11265","6003","3-(5-phenyl-2-furyl)propanoic acid","-","A55638","25489863","-","-","118.0 - 120.0","?C","119.0","Celsius"
"CCCCC(NC(=O)NCC)C(O)=O","-","EN300-112670","6005","2-[(ethylcarbamoyl)amino]hexanoic acid","-","A55638","25489863","-","-","96.0 - 98.0","?C","97.0","Celsius"
"COC(=O)C1=CC(=O)C2=C(N1)C=CC=C2","-","EN300-112671","6006","methyl 4-oxo-1,4-dihydroquinoline-2-carboxylate","-","A55638","25489863","-","-","223.0 - 225.0","?C","224.0","Celsius"
"OCC1=NNC(=C1)C1=CC=CC=C1","-","EN300-112675","6007","(5-phenyl-1H-pyrazol-3-yl)methanol","-","A55638","25489863","-","-","144.0 - 146.0","?C","145.0","Celsius"
"CC1=C(C)C=C(C=C1)C1=NN(C=C1C(O)=O)C1=CC=CC=C1","-","EN300-11268","6008","3-(3,4-dimethylphenyl)-1-phenyl-1H-pyrazole-4-carboxylic acid","-","A55638","25489863","-","-","215.0 - 217.0","?C","216.0","Celsius"
"NC1=C(C=CC=C1I)C#N","-","EN300-112682","6009","2-amino-3-iodobenzonitrile","-","A55638","25489863","-","-","115.0 - 117.0","?C","116.0","Celsius"
"CN1C(C)=NN=C1C1=CC(N)=CC=C1","-","EN300-112684","6010","3-(dimethyl-4H-1,2,4-triazol-3-yl)aniline","-","A55638","25489863","-","-","189.0 - 191.0","?C","190.0","Celsius"
"O=CC1=CN(CC2=CC=CC=C2)N=C1C1=CC=CC=C1","-","EN300-11270","6013","1-benzyl-3-phenyl-1H-pyrazole-4-carbaldehyde","-","A55638","25489863","-","-","85.0 - 87.0","?C","86.0","Celsius"
"CN1C=NC2=C1C=CC(=C2)C(O)=O","-","EN300-112717","6015","1-methyl-1H-1,3-benzodiazole-5-carboxylic acid","-","A55638","25489863","-","-","313.0 - 315.0","?C","314.0","Celsius"
"COC(=O)C1=CC=C(O1)C(O)=O","-","EN300-112723","6016","5-(methoxycarbonyl)furan-2-carboxylic acid","-","A55638","25489863","-","-","194.0 - 196.0","?C","195.0","Celsius"
"CNC(=S)NNC(=O)C1=CC=CC=C1","-","EN300-112733","6017","N-[(methylcarbamothioyl)amino]benzamide","-","A55638","25489863","-","-","181.0 - 183.0","?C","182.0","Celsius"
"OC1=C(O)C=C(C=C1)C1=NN2C(SC1)=NN=C2C1=CC=C(Br)C=C1","-","EN300-112737","6018","4-[3-(4-bromophenyl)-7H-[1,2,4]triazolo[3,4-b][1,3,4]thiadiazin-6-yl]benzene-1,2-diol","-","A55638","25489863","-","-","269.0 - 271.0","?C","270.0","Celsius"
"NC1=C(C(=O)C2=CC(F)=CC=C2)C2=C(CCCC2)S1","-","EN300-11274","6019","(2-amino-4,5,6,7-tetrahydro-1-benzothien-3-yl)(3-fluorophenyl)methanone","-","A55638","25489863","-","-","110.0 - 114.0","?C","112.0","Celsius"
"CCC(CC)N1N=CC=C1C(O)=O","-","EN300-112749","6022","1-(pentan-3-yl)-1H-pyrazole-5-carboxylic acid","-","A55638","25489863","-","-","137.0 - 139.0","?C","138.0","Celsius"
"[O-][N+](=O)C1=C2CCCNC2=C(Cl)C=C1","-","EN300-112750","6023","8-chloro-5-nitro-1,2,3,4-tetrahydroquinoline","-","A55638","25489863","-","-","93.0 - 95.0","?C","94.0","Celsius"
"COCC1=NC=NC(O)=C1","-","EN300-112753","6026","6-(methoxymethyl)pyrimidin-4-ol","-","A55638","25489863","-","-","159.0 - 161.0","?C","160.0","Celsius"
"COC1=C(OC(C)=O)C=CC(=C1)C(O)=O","-","EN300-112782","6029","4-(Acetyloxy)-3-methoxybenzoic acid","-","A55638","25489863","-","-","144.0 - 146.0","?C","145.0","Celsius"
"OC(=O)C1=CC(COCC2=CC=CC=C2)=C(F)C=C1","-","EN300-112794","6030","3-[(benzyloxy)methyl]-4-fluorobenzoic acid","-","A55638","25489863","-","-","95.0 - 97.0","?C","96.0","Celsius"
"CC(C)N1CCC(CC1)NC(C)=O","-","EN300-112795","6031","N-[1-(propan-2-yl)piperidin-4-yl]acetamide","-","A55638","25489863","-","-","84.0 - 86.0","?C","85.0","Celsius"
"COC(=O)C1=CC(N)=C(SC2=NC=C(Cl)C=C2)C=C1","-","EN300-112797","6032","methyl 3-amino-4-[(5-chloropyridin-2-yl)sulfanyl]benzoate","-","A55638","25489863","-","-","121.0 - 123.0","?C","122.0","Celsius"
"OCC1=CC=CC2=NC=CN12","-","EN300-112798","6033","imidazo[1,2-a]pyridin-5-ylmethanol","-","A55638","25489863","-","-","154.0 - 156.0","?C","155.0","Celsius"
"CCC1=C(C)C(C(N)=O)=C(N)S1","-","EN300-112801","6034","2-amino-5-ethyl-4-methylthiophene-3-carboxamide","-","A55638","25489863","-","-","134.0 - 136.0","?C","135.0","Celsius"
"OC(=O)CC1=CC(OCC(F)(F)F)=CC=C1","-","EN300-112814","6035","2-[3-(2,2,2-trifluoroethoxy)phenyl]acetic acid","-","A55638","25489863","-","-","99.0 - 101.0","?C","100.0","Celsius"
"OC(=O)C1=C(F)C=C(Br)C(=C1)S(Cl)(=O)=O","-","EN300-112816","6036","4-bromo-5-(chlorosulfonyl)-2-fluorobenzoic acid","-","A55638","25489863","-","-","147.0 - 149.0","?C","148.0","Celsius"
"OC1=NN=C(S)N1CCC1=CC=CC=C1","-","EN300-11282","6038","5-mercapto-4-(2-phenylethyl)-4H-1,2,4-triazol-3-ol","-","A55638","25489863","-","-","167.0 - 169.0","?C","168.0","Celsius"
"O=CC1=CC=CC2=NC=CN12","-","EN300-112824","6040","imidazo[1,2-a]pyridine-5-carbaldehyde","-","A55638","25489863","-","-","123.0 - 125.0","?C","124.0","Celsius"
"OC(=O)C1=C(F)C(Cl)=NC=C1","-","EN300-112836","6041","2-chloro-3-fluoropyridine-4-carboxylic acid","-","A55638","25489863","-","-","194.0 - 196.0","?C","195.0","Celsius"
"FC1=C2OCC(=O)C2=CC(Br)=C1","-","EN300-112850","6042","5-bromo-7-fluoro-2,3-dihydro-1-benzofuran-3-one","-","A55638","25489863","-","-","102.0 - 104.0","?C","103.0","Celsius"
"FC1=C(C=C(C=O)C=C1)C#N","-","EN300-112856","6044","2-fluoro-5-formylbenzonitrile","-","A55638","25489863","-","-","80.0 - 84.0","?C","82.0","Celsius"
"CN(C)C1=CC(Cl)=C(C=C1)C(N)=N","-","EN300-112869","6047","2-chloro-4-(dimethylamino)benzene-1-carboximidamide","-","A55638","25489863","-","-","148.0 - 150.0","?C","149.0","Celsius"
"OC(=O)CCCC(=O)NC1=C(C=CC=C1)C#N","-","EN300-112871","6049","4-[(2-cyanophenyl)carbamoyl]butanoic acid","-","A55638","25489863","-","-","139.0 - 141.0","?C","140.0","Celsius"
"OC(=O)C1=C(ON=C1)C1=CC=C(Cl)S1","-","EN300-112876","6050","5-(5-chlorothiophen-2-yl)-1,2-oxazole-4-carboxylic acid","-","A55638","25489863","-","-","191.0 - 193.0","?C","192.0","Celsius"
"CC1=NC(=NCC(O)=O)C2=C(N1)SC(=C2)C1=CC=CC=C1","-","EN300-112882","6051","[(2-methyl-6-phenylthieno[2,3-d]pyrimidin-4-yl)amino]acetic acid","-","A55638","25489863","-","-","257.0 - 259.0","?C","258.0","Celsius"
"CC1=NC2=NN=NN2C(C)=C1CCC(O)=O","-","EN300-112883","6052","3-{dimethyl-[1,2,3,4]tetrazolo[1,5-a]pyrimidin-6-yl}propanoic acid","-","A55638","25489863","-","-","187.0 - 189.0","?C","188.0","Celsius"
"CC1=CC2=C(S1)N=CN=C2N1CCCC1C(O)=O","-","EN300-112886","6053","1-{6-methylthieno[2,3-d]pyrimidin-4-yl}pyrrolidine-2-carboxylic acid","-","A55638","25489863","-","-","129.0 - 131.0","?C","130.0","Celsius"
"CS(=O)(=O)C1=C(C=CC(Br)=C1)[N+]([O-])=O","-","EN300-112901","6054","4-bromo-2-methanesulfonyl-1-nitrobenzene","-","A55638","25489863","-","-","152.0 - 154.0","?C","153.0","Celsius"
"OC(=O)C1=CC(OCC(F)F)=CN=C1","-","EN300-112914","6056","5-(2,2-difluoroethoxy)pyridine-3-carboxylic acid","-","A55638","25489863","-","-","166.0 - 168.0","?C","167.0","Celsius"
"CC1(CCCN1C(=O)OCC1=CC=CC=C1)C(O)=O","-","EN300-112915","6057","1-[(benzyloxy)carbonyl]-2-methylpyrrolidine-2-carboxylic acid","-","A55638","25489863","-","-","119.0 - 121.0","?C","120.0","Celsius"
"NC1=CC=NN1C1=NC=C(C=C1)C(F)(F)F","-","EN300-112925","6058","1-[5-(trifluoromethyl)pyridin-2-yl]-1H-pyrazol-5-amine","-","A55638","25489863","-","-","89.0 - 91.0","?C","90.0","Celsius"
"CC1=C(C=CC=C1N)S(C)(=O)=O","-","EN300-112928","6059","3-methanesulfonyl-2-methylaniline","-","A55638","25489863","-","-","117.0 - 119.0","?C","118.0","Celsius"
"CC1=C(C=CC=C1N)C#N","-","EN300-112929","6060","3-amino-2-methylbenzonitrile","-","A55638","25489863","-","-","90.0 - 92.0","?C","91.0","Celsius"
"CCCOC1=CC(CC(O)=O)=CC=C1","-","EN300-112930","6061","2-(3-propoxyphenyl)acetic acid","-","A55638","25489863","-","-","88.0 - 90.0","?C","89.0","Celsius"
"CCOC1=CC(CC(O)=O)=CC=C1","-","EN300-112932","6062","2-(3-ethoxyphenyl)acetic acid","-","A55638","25489863","-","-","89.0 - 91.0","?C","90.0","Celsius"
"OC(=O)C1=CC=C(SC2CCOC2=O)C=C1","-","EN300-112933","6063","4-[(2-oxooxolan-3-yl)sulfanyl]benzoic acid","-","A55638","25489863","-","-","169.0 - 171.0","?C","170.0","Celsius"
"COC1=C(OC)C(OC)=C2CCNC(=O)CC2=C1","-","EN300-112935","6065","6,7,8-trimethoxy-2,3,4,5-tetrahydro-1H-3-benzazepin-2-one","-","A55638","25489863","-","-","176.0 - 178.0","?C","177.0","Celsius"
"COC1=C(OC)C(OC)=C2CCNCCC2=C1","-","EN300-112936","6066","6,7,8-trimethoxy-2,3,4,5-tetrahydro-1H-3-benzazepine","-","A55638","25489863","-","-","60.0 - 62.0","?C","61.0","Celsius"
"CC1=CC(C)=C(C=C1)N1C(S)=NC=C1C1=CC=CC=C1","-","EN300-11294","6067","1-(2,4-dimethylphenyl)-5-phenyl-1H-imidazole-2-thiol","-","A55638","25489863","-","-","247.0 - 249.0","?C","248.0","Celsius"
"OC(=O)CCCCC1=CC(O)=CC=C1","-","EN300-112940","6068","5-(3-hydroxyphenyl)pentanoic acid","-","A55638","25489863","-","-","115.0 - 117.0","?C","116.0","Celsius"
"BrC1=C(OC2=NN=CC=C2)C=CC=C1","-","EN300-112947","6071","3-(2-bromophenoxy)pyridazine","-","A55638","25489863","-","-","109.0 - 111.0","?C","110.0","Celsius"
"C1CC1N1C=NC2=C1C=CN=C2","-","EN300-112950","6072","1-cyclopropyl-1H-imidazo[4,5-c]pyridine","-","A55638","25489863","-","-","53.0 - 55.0","?C","54.0","Celsius"
"NC(=O)C1=CNN=N1","-","EN300-113005","6074","1H-1,2,3-triazole-4-carboxamide","-","A55638","25489863","-","-","256.0 - 258.0","?C","257.0","Celsius"
"OC(=O)CCCN1C(=O)CNC1=O","-","EN300-11301","6075","4-(2,5-dioxoimidazolidin-1-yl)butanoic acid","-","A55638","25489863","-","-","151.0 - 153.0","?C","152.0","Celsius"
"NC1=CNN=C1C1=CC=CC=C1","-","EN300-113013","6076","3-phenyl-1H-pyrazol-4-amine","-","A55638","25489863","-","-","147.0 - 149.0","?C","148.0","Celsius"
"COC1=C(C=C(C)C=C1)C1(C)NC(=O)N(CC(O)=O)C1=O","-","EN300-113019","6078","2-[4-(2-methoxy-5-methylphenyl)-4-methyl-2,5-dioxoimidazolidin-1-yl]acetic acid","-","A55638","25489863","-","-","188.0 - 190.0","?C","189.0","Celsius"
"COC1=C(C=CC=C1)C1(C)NC(=O)N(CC(O)=O)C1=O","-","EN300-113021","6079","2-[4-(2-methoxyphenyl)-4-methyl-2,5-dioxoimidazolidin-1-yl]acetic acid","-","A55638","25489863","-","-","179.0 - 181.0","?C","180.0","Celsius"
"CC(C)NS(=O)(=O)C1CCNC1","-","EN300-113023","6080","N-(propan-2-yl)pyrrolidine-3-sulfonamide","-","A55638","25489863","-","-","104.0 - 106.0","?C","105.0","Celsius"
"COC(=O)COC1=C(Cl)C=C(N)C=C1","-","EN300-113026","6081","methyl 2-(4-amino-2-chlorophenoxy)acetate","-","A55638","25489863","-","-","66.0 - 68.0","?C","67.0","Celsius"
"NC(CC(O)=O)C1CCOCC1","-","EN300-113028","6082","3-amino-3-(oxan-4-yl)propanoic acid","-","A55638","25489863","-","-","228.0 - 230.0","?C","229.0","Celsius"
"NC1=C(Br)C=C(F)C(F)=C1","-","EN300-113031","6084","2-bromo-4,5-difluoroaniline","-","A55638","25489863","-","-","47.0 - 49.0","?C","48.0","Celsius"
"CN1C(S)=NN=C1C1=CC(N)=CN=C1","-","EN300-113037","6085","5-(5-aminopyridin-3-yl)-4-methyl-4H-1,2,4-triazole-3-thiol","-","A55638","25489863","-","-","206.0 - 208.0","?C","207.0","Celsius"
"COC(=O)CN1C=C(N=N1)C(C)=O","-","EN300-113039","6086","methyl 2-(4-acetyl-1H-1,2,3-triazol-1-yl)acetate","-","A55638","25489863","-","-","79.0 - 81.0","?C","80.0","Celsius"
"ClCC(=O)N1CCCC1C1=CC2=C(OCCO2)C=C1","-","EN300-11304","6087","1-(chloroacetyl)-2-(2,3-dihydro-1,4-benzodioxin-6-yl)pyrrolidine","-","A55638","25489863","-","-","168.0 - 169.0","?C","168.0","Celsius"
"CCOC1=CC=C(C=C1)C1=NC(CCl)=CO1","-","EN300-113041","6088","4-(chloromethyl)-2-(4-ethoxyphenyl)-1,3-oxazole","-","A55638","25489863","-","-","102.0 - 104.0","?C","103.0","Celsius"
"CCN1C=C(N)C(=O)C(Br)=C1","-","EN300-113058","6090","3-amino-5-bromo-1-ethyl-1,4-dihydropyridin-4-one","-","A55638","25489863","-","-","116.0 - 118.0","?C","117.0","Celsius"
"OC(=O)C1=C(ON=C1)C1CC1","-","EN300-113062","6092","5-cyclopropyl-1,2-oxazole-4-carboxylic acid","-","A55638","25489863","-","-","159.0 - 161.0","?C","160.0","Celsius"
"CC1=CC=C(C=C1)S(=O)(=O)O[I](O)C1=CC=CC=C1","-","EN300-113070","6094","hydroxy phenyl 4-methylbenzene-1-sulfonoperoxoyl iodide","-","A55638","25489863","-","-","134.0 - 136.0","?C","135.0","Celsius"
"CN1C=CN=C1C(O)C1CCNCC1","-","EN300-113084","6095","(1-methyl-1H-imidazol-2-yl)(piperidin-4-yl)methanol","-","A55638","25489863","-","-","207.0 - 209.0","?C","208.0","Celsius"
"OC(=O)CCC1=NC2=C(OC1=O)C=CC=C2","-","EN300-11309","6096","3-(2-oxo-2H-1,4-benzoxazin-3-yl)propanoic acid","-","A55638","25489863","-","-","167.0 - 169.0","?C","168.0","Celsius"
"CCCN(C(C)C)C(=O)C1=C(N)C=CC=C1","-","EN300-113096","6097","2-amino-N-(propan-2-yl)-N-propylbenzamide","-","A55638","25489863","-","-","64.0 - 66.0","?C","65.0","Celsius"
"CS(=O)(=O)N1CCNC(=O)C1","-","EN300-113097","6098","4-methanesulfonylpiperazin-2-one","-","A55638","25489863","-","-","164.0 - 166.0","?C","165.0","Celsius"
"COC1=C(Br)C=C(C=C1)C(C)=O","35310-75-9","EN300-11310","6100","1-(3-bromo-4-methoxyphenyl)ethanone","-","A55638","25489863","-","-","82.0 - 84.0","?C","83.0","Celsius"
"CN(C)C(=O)NC1=CC(Cl)=C(C=C1)C(O)=O","-","EN300-113101","6101","2-chloro-4-[(dimethylcarbamoyl)amino]benzoic acid","-","A55638","25489863","-","-","191.0 - 193.0","?C","192.0","Celsius"
"O=C1NCCN1CC#C","-","EN300-113108","6102","1-(prop-2-yn-1-yl)imidazolidin-2-one","-","A55638","25489863","-","-","119.0 - 121.0","?C","120.0","Celsius"
"CSC1=CC=C(C=C1)C1=CSC(N)=N1","105512-85-4","EN300-11311","6103","4-[4-(methylthio)phenyl]-1,3-thiazol-2-amine","-","A55638","25489863","-","-","219.0 - 221.0","?C","220.0","Celsius"
"CC(C)(C)OC(=O)N1CCC2(C1)NC(=O)NC2=O","-","EN300-113119","6109","tert-butyl 2,4-dioxo-1,3,7-triazaspiro[4.4]nonane-7-carboxylate","-","A55638","25489863","-","-","214.0 - 216.0","?C","215.0","Celsius"
"OC(=O)C1CC2(C1)NC(=O)NC2=O","-","EN300-113123","6110","6,8-dioxo-5,7-diazaspiro[3.4]octane-2-carboxylic acid","-","A55638","25489863","-","-","246.0 - 248.0","?C","247.0","Celsius"
"CCC1=C(SC=N1)C(O)=O","-","EN300-113130","6111","4-ethyl-1,3-thiazole-5-carboxylic acid","-","A55638","25489863","-","-","193.0 - 195.0","?C","194.0","Celsius"
"CC1=C(C=C(C=C1)S(=O)(=O)NC1CCCCC1)C(O)=O","-","EN300-11315","6112","5-[(cyclohexylamino)sulfonyl]-2-methylbenzoic acid","-","A55638","25489863","-","-","217.0 - 219.0","?C","218.0","Celsius"
"COC1=CC=C(NC2=C(Cl)C(=O)N(C2=O)C2=CC=C(C)C=C2)C=C1","-","EN300-11316","6113","3-chloro-4-[(4-methoxyphenyl)amino]-1-(4-methylphenyl)-1H-pyrrole-2,5-dione","-","A55638","25489863","-","-","194.0 - 196.0","?C","195.0","Celsius"
"N#CC1=CC=CN2C=CN=C12","-","EN300-113178","6114","imidazo[1,2-a]pyridine-8-carbonitrile","-","A55638","25489863","-","-","169.0 - 171.0","?C","170.0","Celsius"
"CCC1=C(C=C(C=C1)S(Cl)(=O)=O)C(O)=O","-","EN300-113190","6115","5-(chlorosulfonyl)-2-ethylbenzoic acid","-","A55638","25489863","-","-","133.0 - 135.0","?C","134.0","Celsius"
"O=C1N(C2CCCCC(=O)C2)C(=O)C2=C1C=CC=C2","-","EN300-113198","6116","2-(3-oxocycloheptyl)-2,3-dihydro-1H-isoindole-1,3-dione","-","A55638","25489863","-","-","119.0 - 121.0","?C","120.0","Celsius"
"OC(=O)CC1=C(Br)C=CC(Cl)=C1","-","EN300-113207","6119","2-(2-bromo-5-chlorophenyl)acetic acid","-","A55638","25489863","-","-","101.0 - 103.0","?C","102.0","Celsius"
"BrC1=C2NC(=O)C=CN2N=C1","-","EN300-113214","6121","3-bromo-4H,5H-pyrazolo[1,5-a]pyrimidin-5-one","-","A55638","25489863","-","-","349.0 - 351.0","?C","350.0","Celsius"
"[O-][N+](=O)C1=C(F)C(=C(F)C=C1)[N+]([O-])=O","-","EN300-113215","6122","1,3-difluoro-2,4-dinitrobenzene","-","A55638","25489863","-","-","37.0 - 39.0","?C","38.0","Celsius"
"OC(=O)C1=C(ON=C1)C1=CC=C(Cl)C=C1","-","EN300-113216","6123","5-(4-chlorophenyl)-1,2-oxazole-4-carboxylic acid","-","A55638","25489863","-","-","205.0 - 207.0","?C","206.0","Celsius"
"OC(=O)C1CCCN1C(=O)C12CC3CC(CC(C3)C1)C2","35084-48-1","EN300-11322","6124","1-(1-adamantylcarbonyl)pyrrolidine-2-carboxylic acid","-","A55638","25489863","-","-","193.0 - 195.0","?C","194.0","Celsius"
"OC(=O)C1=CC(=NO1)C1=CC2=C(OCC2)C=C1","-","EN300-113222","6125","3-(2,3-dihydro-1-benzofuran-5-yl)-1,2-oxazole-5-carboxylic acid","-","A55638","25489863","-","-","235.0 - 237.0","?C","236.0","Celsius"
"CC(C)N1CCC(CC1)N1CCNCC1","-","EN300-113223","6126","1-[1-(propan-2-yl)piperidin-4-yl]piperazine","-","A55638","25489863","-","-","46.0 - 48.0","?C","47.0","Celsius"
"CC1=CC(C)=NC(=N1)N1N=CC=C1N","-","EN300-113225","6127","1-(4,6-dimethylpyrimidin-2-yl)-1H-pyrazol-5-amine","-","A55638","25489863","-","-","183.0 - 185.0","?C","184.0","Celsius"
"NC1=NC(CC2=CC=CC=C2)=NC=C1","-","EN300-113226","6128","2-benzylpyrimidin-4-amine","-","A55638","25489863","-","-","143.0 - 145.0","?C","144.0","Celsius"
"CC1=CN2C(C=O)=CN=C2C=C1","-","EN300-113243","6132","6-methylimidazo[1,2-a]pyridine-3-carbaldehyde","-","A55638","25489863","-","-","105.0 - 107.0","?C","106.0","Celsius"
"OC(=O)C1CCCC(=O)N1","-","EN300-113247","6133","6-oxopiperidine-2-carboxylic acid","-","A55638","25489863","-","-","94.0 - 96.0","?C","95.0","Celsius"
"NNC(=O)C1=CC=C(C=C1)S(=O)(=O)N1CCN(CC2=CC=CC=C2)CC1","-","EN300-11326","6137","4-[(4-benzylpiperazin-1-yl)sulfonyl]benzohydrazide","-","A55638","25489863","-","-","135.0 - 137.0","?C","136.0","Celsius"
"CN1C(=O)CCC2=C1C=CC(=C2)C(O)=O","-","EN300-113268","6138","1-methyl-2-oxo-1,2,3,4-tetrahydroquinoline-6-carboxylic acid","-","A55638","25489863","-","-","209.0 - 211.0","?C","210.0","Celsius"
"NC1=CC=C(NS(=O)(=O)C2=C(Cl)C=CC=C2Cl)C=C1","-","EN300-11327","6139","N-(4-aminophenyl)-2,6-dichlorobenzenesulfonamide","-","A55638","25489863","-","-","161.0 - 163.0","?C","162.0","Celsius"
"CC1(NC(=O)N(CC(O)=O)C1=O)C1=CC=C(Br)C=C1","-","EN300-113288","6140","2-[4-(4-bromophenyl)-4-methyl-2,5-dioxoimidazolidin-1-yl]acetic acid","-","A55638","25489863","-","-","247.0 - 249.0","?C","248.0","Celsius"
"CC1=CC=C(OC2=CC=C(C=C2)C#N)C=C1","-","EN300-113290","6141","4-(4-methylphenoxy)benzonitrile","-","A55638","25489863","-","-","69.0 - 71.0","?C","70.0","Celsius"
"OC1=CC(=CC(F)=C1)[N+]([O-])=O","-","EN300-113295","6142","3-fluoro-5-nitrophenol","-","A55638","25489863","-","-","111.0 - 113.0","?C","112.0","Celsius"
"CC1=NNC(N)=C1C1=CC2=C(OCCO2)C=C1","-","EN300-113296","6143","4-(2,3-dihydro-1,4-benzodioxin-6-yl)-3-methyl-1H-pyrazol-5-amine","-","A55638","25489863","-","-","120.0 - 122.0","?C","121.0","Celsius"
"COC(=O)C1=NC=C(I)C=C1","-","EN300-113299","6144","methyl 5-iodopyridine-2-carboxylate","-","A55638","25489863","-","-","129.0 - 131.0","?C","130.0","Celsius"
"CCCN1C(CCC(O)=O)=NC2=C1C=CC(=C2)S(N)(=O)=O","-","EN300-11330","6145","3-[5-(aminosulfonyl)-1-propyl-1H-benzimidazol-2-yl]propanoic acid","-","A55638","25489863","-","-","259.0 - 261.0","?C","260.0","Celsius"
"CN(C)C(=O)C1=CC(F)=C(NN)C(F)=C1","-","EN300-113303","6146","3,5-difluoro-4-hydrazinyl-N,N-dimethylbenzamide","-","A55638","25489863","-","-","74.0 - 76.0","?C","75.0","Celsius"
"OC(=O)CCC1=CC=C(C=C1)S(=O)(=O)N1CCCCCC1","-","EN300-11331","6147","3-[4-(azepan-1-ylsulfonyl)phenyl]propanoic acid","-","A55638","25489863","-","-","122.0 - 124.0","?C","123.0","Celsius"
"OC(=O)C1=C(I)C(F)=CC=C1","-","EN300-113319","6149","3-fluoro-2-iodobenzoic acid","-","A55638","25489863","-","-","148.0 - 150.0","?C","149.0","Celsius"
"CC1=C2NC3=C(CCCC3N)C2=CC=C1","-","EN300-113324","6150","8-methyl-2,3,4,9-tetrahydro-1H-carbazol-1-amine","-","A55638","25489863","-","-","130.0 - 132.0","?C","131.0","Celsius"
"OC(=O)C1CCCC2=C1C=CS2","-","EN300-113329","6152","4,5,6,7-tetrahydro-1-benzothiophene-4-carboxylic acid","-","A55638","25489863","-","-","79.0 - 81.0","?C","80.0","Celsius"
"COC1=CC(=CC(OC)=C1)C(=O)C1=C(N)SC2=C1CCC(C)C2","-","EN300-11333","6153","(2-amino-6-methyl-4,5,6,7-tetrahydro-1-benzothien-3-yl)(3,5-dimethoxyphenyl)methanone","-","A55638","25489863","-","-","162.0 - 164.0","?C","163.0","Celsius"
"CN1C=CN=C1C1=NC=CC(Cl)=C1","-","EN300-113337","6155","4-chloro-2-(1-methyl-1H-imidazol-2-yl)pyridine","-","A55638","25489863","-","-","77.0 - 79.0","?C","78.0","Celsius"
"COC1=CC2=C(CCC22NC(=O)NC2=O)C=C1","-","EN300-113341","6158","6'-methoxy-2',3'-dihydrospiro[imidazolidine-4,1'-indene]-2,5-dione","-","A55638","25489863","-","-","189.0 - 191.0","?C","190.0","Celsius"
"CCCN1C=CN=C1S","10583-84-3","EN300-11335","6159","1-propyl-1H-imidazole-2-thiol","-","A55638","25489863","-","-","119.0 - 121.0","?C","120.0","Celsius"