"SMILES","CASRN","EXTERNALID","N","NAME","NAME","ARTICLEID","PUBMEDID","PAGE","TABLE","Melting Point {measured}","UNIT {Melting Point}","Melting Point {measured, converted}","UNIT {Melting Point}"
"ClCC(=O)NC1=CC(Cl)=CC=C1","2564-05-8","EN300-01653","675","2-Chloro-N-(3-chloro-phenyl)-acetamide","-","A55638","25489863","-","-","70.0 - 72.0","?C","71.0","Celsius"
"CC1CCCC(NC(=O)CCl)C1C","-","EN300-01656","676","2-Chloro-N-(2,3-dimethyl-cyclohexyl)-acetamide","-","A55638","25489863","-","-","125.0 - 127.0","?C","126.0","Celsius"
"CC1=CC(NC(=O)CCl)=C(C)C=C1","5177-35-5","EN300-01662","678","2-Chloro-N-(2,5-dimethyl-phenyl)-acetamide","-","A55638","25489863","-","-","161.0 - 163.0","?C","162.0","Celsius"
"ClCC(=O)NC1CCCC1","-","EN300-01663","679","2-Chloro-N-cyclopentyl-acetamide","-","A55638","25489863","-","-","73.0 - 75.0","?C","74.0","Celsius"
"ClCC(=O)NC1CCCCCCC1","-","EN300-01665","680","2-Chloro-N-cyclooctyl-acetamide","-","A55638","25489863","-","-","82.0 - 84.0","?C","83.0","Celsius"
"CC1=CC(C)=C(NC(=O)CCl)C=C1","39106-10-0","EN300-01666","681","2-Chloro-N-(2,4-dimethyl-phenyl)-acetamide","-","A55638","25489863","-","-","153.0 - 155.0","?C","154.0","Celsius"
"COC(=O)C1=CC=C(CNC(=O)CCl)C=C1","-","EN300-01667","682","4-[(2-Chloro-acetylamino)-methyl]-benzoic acid methyl ester","-","A55638","25489863","-","-","108.0 - 110.0","?C","109.0","Celsius"
"CCN(CC)S(=O)(=O)C1=CC(NC(=O)CCl)=CC=C1","-","EN300-01670","683","2-Chloro-N-(3-diethylsulfamoyl-phenyl)-acetamide","-","A55638","25489863","-","-","82.0 - 84.0","?C","83.0","Celsius"
"CC(NC(=O)CCl)C1CC2CCC1C2","-","EN300-01677","684","N-(1-Bicyclo[2.2.1]hept-2-yl-ethyl)-2-chloro-acetamide","-","A55638","25489863","-","-","87.0 - 89.0","?C","88.0","Celsius"
"COC1=C(NC(=O)CCl)C=C(Cl)C=C1","35588-41-1","EN300-01685","686","2-Chloro-N-(5-chloro-2-methoxy-phenyl)-acetamide","-","A55638","25489863","-","-","101.0 - 103.0","?C","102.0","Celsius"
"ClCC(=O)NC1=C(SC2=CC=CC=C2)C=CC=C1","22504-08-1","EN300-01686","687","2-Chloro-N-(2-phenylsulfanyl-phenyl)-acetamide","-","A55638","25489863","-","-","159.0 - 161.0","?C","160.0","Celsius"
"COC1=CC=C(CNC(=O)CCl)C=C1","-","EN300-01700","688","2-Chloro-N-(4-methoxy-benzyl)-acetamide","-","A55638","25489863","-","-","103.0 - 105.0","?C","104.0","Celsius"
"COC1=C(NC(=O)CCl)C=C(C=C1)S(=O)(=O)N1CCOCC1","-","EN300-01708","689","2-Chloro-N-[2-methoxy-5-(morpholine-4-sulfonyl)-phenyl]-acetamide","-","A55638","25489863","-","-","180.0 - 182.0","?C","181.0","Celsius"
"CCN(CC)S(=O)(=O)C1=CC(=C(Cl)C=C1)[N+]([O-])=O","127-53-7","EN300-01710","690","4-Chloro-N,N-diethyl-3-nitro-benzenesulfonamide","-","A55638","25489863","-","-","88.0 - 91.0","?C","89.5","Celsius"
"[O-][N+](=O)C1=CC(=C(Cl)C=C1)S(Cl)(=O)=O","4533-95-3","EN300-01715","692","2-Chloro-5-nitro-benzenesulfonyl chloride","-","A55638","25489863","-","-","85.0 - 87.0","?C","86.0","Celsius"
"OC(=O)C1=CC(=C(Cl)C=C1)S(Cl)(=O)=O","2494-79-3","EN300-01716","693","4-chloro-3-chlorosulfonyl-benzoic acid","-","A55638","25489863","-","-","142.0 - 145.0","?C","144.0","Celsius"
"OC(=O)C1=C(Cl)C=CC(=C1)S(Cl)(=O)=O","137-64-4","EN300-01717","694","2-chloro-5-chlorosulfonyl-benzoic acid","-","A55638","25489863","-","-","105.0 - 115.0","?C","110.0","Celsius"
"CCOC1=C(C=C(Br)C=C1)S(Cl)(=O)=O","379255-01-3","EN300-01718","695","5-Bromo-2-ethoxy-benzenesulfonyl chloride","-","A55638","25489863","-","-","109.0 - 111.0","?C","110.0","Celsius"
"CCOC1=CC=C(C=C1)S(Cl)(=O)=O","1132-17-8","EN300-01719","696","4-Ethoxy-benzenesulfonyl chloride","-","A55638","25489863","-","-","40.0 - 45.0","?C","42.5","Celsius"
"OC(=O)C1=C(Cl)C=C(Cl)C(=C1)S(Cl)(=O)=O","3740-18-9","EN300-01720","697","2,4-dichloro-5-chlorosulfonyl-benzoic acid","-","A55638","25489863","-","-","158.0 - 162.0","?C","160.0","Celsius"
"CN(C1=CC=CC=C1)S(=O)(=O)C1=CC(NC(=O)CCl)=CC=C1","-","EN300-01727","701","2-Chloro-N-[3-(methyl-phenyl-sulfamoyl)-phenyl]-acetamide","-","A55638","25489863","-","-","98.0 - 100.0","?C","99.0","Celsius"
"CN1N(C(=O)C(NS(=O)(=O)C2=CC(=C(Cl)C=C2)[N+]([O-])=O)=C1C)C1=CC=CC=C1","-","EN300-01729","702","4-Chloro-N-(1,5-dimethyl-3-oxo-2-phenyl-2,3-dihydro-1H-pyrazol-4-yl)-3-nitro-benzenesulfonamide","-","A55638","25489863","-","-","227.0 - 229.0","?C","228.0","Celsius"
"[O-][N+](=O)C1=CC(=C(Cl)C=C1)S(=O)(=O)N1CCOCC1","-","EN300-01730","703","4-(2-Chloro-5-nitro-benzenesulfonyl)-morpholine","-","A55638","25489863","-","-","149.0 - 151.0","?C","150.0","Celsius"
"[O-][N+](=O)C1=C(Cl)C=CC(=C1)S(=O)(=O)N1CCCC1","-","EN300-01734","704","1-(4-Chloro-3-nitro-benzenesulfonyl)-pyrrolidine","-","A55638","25489863","-","-","96.0 - 100.0","?C","98.0","Celsius"
"ClCC(=O)NCC1=CC=CC=C1","2564-06-9","EN300-01745","707","N-Benzyl-2-chloro-acetamide","-","A55638","25489863","-","-","93.0 - 96.0","?C","94.5","Celsius"
"CC(NC(=O)CCl)C1=CC=CC=C1","-","EN300-01746","708","2-Chloro-N-(1-phenyl-ethyl)-acetamide","-","A55638","25489863","-","-","75.0 - 77.0","?C","76.0","Celsius"
"ClCC(=O)NCCCC1=CC=CC=C1","64297-91-2","EN300-01755","710","2-Chloro-N-(3-phenyl-propyl)-acetamide","-","A55638","25489863","-","-","76.0 - 79.0","?C","77.5","Celsius"
"CC1=CC(Br)=C(NC(=O)CCl)C=C1","90560-54-6","EN300-01756","711","N-(2-Bromo-4-methyl-phenyl)-2-chloro-acetamide","-","A55638","25489863","-","-","169.0 - 171.0","?C","170.0","Celsius"
"ClCC(=O)NC1=CC(OC2=CC=CC=C2)=CC=C1","92290-71-6","EN300-01765","712","2-Chloro-N-(3-phenoxy-phenyl)-acetamide","-","A55638","25489863","-","-","102.0 - 104.0","?C","103.0","Celsius"
"[O-][N+](=O)C1=CC(NC(=O)CCl)=C(F)C=C1","-","EN300-01766","713","2-Chloro-N-(2-fluoro-5-nitro-phenyl)-acetamide","-","A55638","25489863","-","-","125.0 - 127.0","?C","126.0","Celsius"
"ClCC(=O)N1CCCC1","20266-00-6","EN300-01767","714","2-Chloro-1-pyrrolidin-1-yl-ethanone","-","A55638","25489863","-","-","56.0 - 58.0","?C","57.0","Celsius"
"CC1CN(CC(C)O1)C(=O)CCl","-","EN300-01773","715","2-Chloro-1-(2,6-dimethyl-morpholin-4-yl)-ethanone","-","A55638","25489863","-","-","61.0 - 63.0","?C","62.0","Celsius"
"COC1=C(NC(=O)C(C)Cl)C=C(C=C1)[N+]([O-])=O","-","EN300-01778","716","2-Chloro-N-(2-methoxy-5-nitro-phenyl)-propionamide","-","A55638","25489863","-","-","131.0 - 133.0","?C","132.0","Celsius"
"CC(Cl)C(=O)NC1=CC(Cl)=CC=C1","-","EN300-01781","717","2-Chloro-N-(3-chloro-phenyl)-propionamide","-","A55638","25489863","-","-","98.0 - 100.0","?C","99.0","Celsius"
"CC(Cl)C(=O)NC1=C(Cl)C(Cl)=CC=C1","-","EN300-01784","718","2-Chloro-N-(2,3-dichloro-phenyl)-propionamide","-","A55638","25489863","-","-","96.0 - 98.0","?C","97.0","Celsius"
"CC(Cl)C(=O)NC1=C(Cl)C=C(C=C1)[N+]([O-])=O","-","EN300-01787","719","2-Chloro-N-(2-chloro-4-nitro-phenyl)-propionamide","-","A55638","25489863","-","-","87.0 - 89.0","?C","88.0","Celsius"
"[O-][N+](=O)C1=CC(Br)=C(NC(=O)CCl)C=C1","-","EN300-01788","720","N-(2-Bromo-4-nitro-phenyl)-2-chloro-acetamide","-","A55638","25489863","-","-","165.0 - 167.0","?C","166.0","Celsius"
"ClCC(=O)NC1=CC(Cl)=C(Cl)C=C1","20149-84-2","EN300-01791","721","2-Chloro-N-(3,4-dichloro-phenyl)-acetamide","-","A55638","25489863","-","-","103.0 - 105.0","?C","104.0","Celsius"
"CC(Cl)C(=O)NC1=CC(=CC=C1)[N+]([O-])=O","40781-53-1","EN300-01800","722","2-Chloro-N-(3-nitro-phenyl)-propionamide","-","A55638","25489863","-","-","115.0 - 117.0","?C","116.0","Celsius"
"CC(Cl)C(=O)NC1=CC(=CC=C1)C(C)=O","-","EN300-01806","723","N-(3-Acetyl-phenyl)-2-chloro-propionamide","-","A55638","25489863","-","-","111.0 - 113.0","?C","112.0","Celsius"
"NS(=O)(=O)C1=CC=C(CCNC(=O)CCl)C=C1","-","EN300-01816","724","2-Chloro-N-[2-(4-sulfamoyl-phenyl)-ethyl]-acetamide","-","A55638","25489863","-","-","145.0 - 148.0","?C","146.0","Celsius"
"COC1=CC=C(C=C1)C(Cl)C(=O)C1=CC=C(OC)C=C1","71193-36-7","EN300-01823","725","2-Chloro-1,2-bis-(4-methoxy-phenyl)-ethanone","-","A55638","25489863","-","-","69.0 - 71.0","?C","70.0","Celsius"
"[O-][N+](=O)C1=C(Cl)C=CC(=C1)S(=O)(=O)C(F)(F)F","1550-27-2","EN300-01826","726","1-Chloro-2-nitro-4-trifluoromethanesulfonyl-benzene","-","A55638","25489863","-","-","57.0 - 59.0","?C","58.0","Celsius"
"CC(N(C(=O)CCl)C1=NC=CC=C1)C1=CC=CO1","-","EN300-01828","727","2-Chloro-N-(1-furan-2-yl-ethyl)-N-pyridin-2-yl-acetamide","-","A55638","25489863","-","-","87.0 - 89.0","?C","88.0","Celsius"
"OC(=O)C1=CC(=C(F)C=C1)S(Cl)(=O)=O","2267-40-5","EN300-01833","729","3-Chlorosulfonyl-4-fluoro-benzoic acid","-","A55638","25489863","-","-","138.0 - 140.0","?C","139.0","Celsius"
"OC(=O)C1=CC(=CC(Br)=C1)S(Cl)(=O)=O","-","EN300-01835","730","3-Bromo-5-chlorosulfonyl-benzoic acid","-","A55638","25489863","-","-","154.0 - 156.0","?C","155.0","Celsius"
"CC1=C(C=C(C=C1)C(O)=O)S(Cl)(=O)=O","2548-29-0","EN300-01836","731","3-Chlorosulfonyl-4-methyl-benzoic acid","-","A55638","25489863","-","-","140.0 - 147.0","?C","144.0","Celsius"
"CC1=C(C=C(C=C1)S(Cl)(=O)=O)C(O)=O","89001-57-0","EN300-01837","732","5-Chlorosulfonyl-2-methyl-benzoic acid","-","A55638","25489863","-","-","149.0 - 151.0","?C","150.0","Celsius"
"OC(=O)C1=C(Cl)C(=CC=C1Cl)S(Cl)(=O)=O","53553-05-2","EN300-01839","733","2,6-Dichloro-3-chlorosulfonyl-benzoic acid","-","A55638","25489863","-","-","168.0 - 170.0","?C","169.0","Celsius"
"OC(=O)C1=C(F)C(=CC=C1F)S(Cl)(=O)=O","142576-91-8","EN300-01840","734","3-Chlorosulfonyl-2,6-difluoro-benzoic acid","-","A55638","25489863","-","-","107.0 - 111.0","?C","109.0","Celsius"
"OC(=O)C1=CC(=CC(F)=C1)S(Cl)(=O)=O","-","EN300-01841","735","3-Chlorosulfonyl-5-fluoro-benzoic acid","-","A55638","25489863","-","-","136.0 - 138.0","?C","137.0","Celsius"
"OC(=O)C1=C(Cl)C=C(F)C(=C1)S(Cl)(=O)=O","-","EN300-01843","736","2-Chloro-5-chlorosulfonyl-4-fluoro-benzoic acid","-","A55638","25489863","-","-","144.0 - 146.0","?C","145.0","Celsius"
"OC(=O)C1=CC(=C(Br)C=C1)S(Cl)(=O)=O","50803-23-1","EN300-01845","737","4-Bromo-3-chlorosulfonyl-benzoic acid","-","A55638","25489863","-","-","181.0 - 183.0","?C","182.0","Celsius"
"CC1=C(C)C(=CC(=C1)C(O)=O)S(Cl)(=O)=O","151104-64-2","EN300-01847","738","3-Chlorosulfonyl-4,5-dimethyl-benzoic acid","-","A55638","25489863","-","-","171.0 - 173.0","?C","172.0","Celsius"
"BrCC(=O)C12CC3CC(CC(C3)C1)C2","5122-82-7","EN300-01848","739","1-Adamantan-1-yl-2-bromo-ethanone","-","A55638","25489863","-","-","59.0 - 61.0","?C","60.0","Celsius"
"[O-][N+](=O)C1=CC(=C(Cl)C=C1)S(=O)(=O)N1CCCC1","-","EN300-01851","740","1-(2-Chloro-5-nitro-benzenesulfonyl)-pyrrolidine","-","A55638","25489863","-","-","114.0 - 116.0","?C","115.0","Celsius"
"CC1=CC=C(C=C1)C(Cl)C(=O)C1=CC=C(C)C=C1","71193-32-3","EN300-01864","741","2-Chloro-1,2-di-p-tolyl-ethanone","-","A55638","25489863","-","-","67.0 - 69.0","?C","68.0","Celsius"
"CC1CCCC(C)N1C(=O)CCl","33681-23-1","EN300-01865","742","2-Chloro-1-(2,6-dimethyl-piperidin-1-yl)-ethanone","-","A55638","25489863","-","-","71.0 - 73.0","?C","72.0","Celsius"
"CCN(CC)C1=C(NC(=O)CCl)C=C(C=C1)S(=O)(=O)N1CCOCC1","-","EN300-01867","743","2-Chloro-N-[2-diethylamino-5-(morpholine-4-sulfonyl)-phenyl]-acetamide","-","A55638","25489863","-","-","99.0 - 101.0","?C","100.0","Celsius"
"COC(=O)C1=C(NC(=O)CCl)SC2=C1CCC2","-","EN300-01870","744","2-(2-Chloro-acetylamino)-5,6-dihydro-4H-cyclopenta[b]thiophene-3-carboxylic acid methyl ester","-","A55638","25489863","-","-","98.0 - 100.0","?C","99.0","Celsius"
"CC1=CC=C(C=C1)S(=O)(=O)OCC1=NC2=C(S1)C=CC=C2","-","EN300-01872","745","Toluene-4-sulfonic acid benzothiazol-2-ylmethyl ester","-","A55638","25489863","-","-","108.0 - 110.0","?C","109.0","Celsius"
"ClCC(=O)C1=CC2=C(CC3=C2C=C(C=C3)C(=O)CCl)C=C1","-","EN300-01880","746","2-Chloro-1-[6-(2-chloro-acetyl)-9H-fluoren-3-yl]-ethanone","-","A55638","25489863","-","-","200.0 - 202.0","?C","201.0","Celsius"
"CCC1=CC=C(C=C1)C(=O)CCl","50690-09-0","EN300-01881","747","2-Chloro-1-(4-ethyl-phenyl)-ethanone","-","A55638","25489863","-","-","41.0 - 43.0","?C","42.0","Celsius"
"ClCC(=O)C1=CC=C(Br)C=C1","4209-02-3","EN300-01883","748","1-(4-Bromo-phenyl)-2-chloro-ethanone","-","A55638","25489863","-","-","119.0 - 121.0","?C","120.0","Celsius"
"COC1=CC2=C(C=C1)C=C(C=C2)C(=O)CBr","10262-65-4","EN300-01889","749","2-Bromo-1-(6-methoxy-naphthalen-2-yl)-ethanone","-","A55638","25489863","-","-","108.0 - 110.0","?C","109.0","Celsius"
"ClCN1N=NC2=C(C=CC=C2)C1=O","24310-41-6","EN300-01891","750","3-Chloromethyl-3H-benzo[d][1,2,3]triazin-4-one","-","A55638","25489863","-","-","129.0 - 133.0","?C","131.0","Celsius"
"ClCC(=O)C1=CC2=C(CC3=C2C=CC=C3)C=C1","-","EN300-01892","751","2-Chloro-1-(9H-fluoren-3-yl)-ethanone","-","A55638","25489863","-","-","133.0 - 135.0","?C","134.0","Celsius"
"ClCC1=NC2=C(C3=C(CCCC3)S2)C(=O)N1","89567-03-3","EN300-01894","752","2-Chloromethyl-5,6,7,8-tetrahydro-3H-benzo[4,5]thieno[2,3-d]pyrimidin-4-one","-","A55638","25489863","-","-","265.0 - 267.0","?C","266.0","Celsius"
"CC1=C(C(=O)CCl)C2=C(N1)C=CC=C2","38693-08-2","EN300-01905","754","2-Chloro-1-(2-methyl-1H-indol-3-yl)-ethanone","-","A55638","25489863","-","-","227.0 - 229.0","?C","228.0","Celsius"
"FC(F)OC1=C(NC(=O)CCl)C=CC=C1","-","EN300-01908","755","2-Chloro-N-(2-difluoromethoxy-phenyl)-acetamide","-","A55638","25489863","-","-","92.0 - 94.0","?C","93.0","Celsius"
"ClC1=CC=C(S1)C(=O)CBr","57731-17-6","EN300-01910","756","2-Bromo-1-(5-chloro-thiophen-2-yl)-ethanone","-","A55638","25489863","-","-","113.0 - 115.0","?C","114.0","Celsius"
"ClCC(=O)C(C#N)=C1NC2=C(N1)C=CC=C2","-","EN300-01912","757","4-Chloro-2-(1,3-dihydro-benzoimidazol-2-ylidene)-3-oxo-butyronitrile","-","A55638","25489863","-","-","285.0 - 287.0","?C","286.0","Celsius"
"ClCC(=O)NC1=C(C#N)C(=C(O1)C1=CC=CC=C1)C1=CC=CC=C1","-","EN300-01913","758","2-Chloro-N-(3-cyano-4,5-diphenyl-furan-2-yl)-acetamide","-","A55638","25489863","-","-","155.0 - 157.0","?C","156.0","Celsius"
"FC1=CC(NC(=O)CCl)=C(F)C=C1","-","EN300-01916","759","2-Chloro-N-(2,5-difluoro-phenyl)-acetamide","-","A55638","25489863","-","-","118.0 - 120.0","?C","119.0","Celsius"
"ClCC(=O)NCCC1=CCCCC1","-","EN300-01919","760","2-Chloro-N-(2-cyclohex-1-enyl-ethyl)-acetamide","-","A55638","25489863","-","-","60.0 - 62.0","?C","61.0","Celsius"
"FC1=CC(NC(=O)CCl)=CC=C1","350-81-2","EN300-01920","761","2-Chloro-N-(3-fluoro-phenyl)-acetamide","-","A55638","25489863","-","-","104.0 - 106.0","?C","105.0","Celsius"
"NS(=O)(=O)C1=CC=C(NC(=O)CCl)C=C1","14949-01-0","EN300-01924","763","2-Chloro-N-(4-sulfamoyl-phenyl)-acetamide","-","A55638","25489863","-","-","156.0 - 158.0","?C","157.0","Celsius"
"CN(C)S(=O)(=O)C1=C(C)C=CC(NC(=O)CCl)=C1","-","EN300-01925","764","2-Chloro-N-(3-dimethylsulfamoyl-4-methyl-phenyl)-acetamide","-","A55638","25489863","-","-","74.0 - 76.0","?C","75.0","Celsius"
"CN(C)S(=O)(=O)C1=C(Cl)C=CC(NC(=O)CCl)=C1","-","EN300-01927","765","2-Chloro-N-(4-chloro-3-dimethylsulfamoyl-phenyl)-acetamide","-","A55638","25489863","-","-","183.0 - 185.0","?C","184.0","Celsius"
"ClCC(=O)NC1=C(C=CC=C1)C1=CC=CC=C1","23088-28-0","EN300-01931","766","N-Biphenyl-2-yl-2-chloro-acetamide","-","A55638","25489863","-","-","103.0 - 106.0","?C","104.0","Celsius"
"COC1=C(NC(=O)C2=CC=C(NC(=O)CCl)C=C2)C=CC=C1","-","EN300-01938","767","4-(2-Chloro-acetylamino)-N-(2-methoxy-phenyl)-benzamide","-","A55638","25489863","-","-","103.0 - 106.0","?C","104.0","Celsius"
"CCOC(=O)C1=C(NC(=O)C(C)Cl)SC2=C1CCC(C)C2","-","EN300-01946","768","2-(2-Chloro-propionylamino)-6-methyl-4,5,6,7-tetrahydro-benzo[b]thiophene-3-carboxylic acid ethyl ester","-","A55638","25489863","-","-","90.0 - 93.0","?C","91.5","Celsius"
"CC1=C(NC(=O)CCl)C=C(C=C1)S(=O)(=O)N1CCCCC1","-","EN300-01948","769","2-Chloro-N-[2-methyl-5-(piperidine-1-sulfonyl)-phenyl]-acetamide","-","A55638","25489863","-","-","107.0 - 109.0","?C","108.0","Celsius"
"FC1=C(F)C=C(C=C1)C(=O)CCl","51336-95-9","EN300-01950","770","2-Chloro-1-(3,4-difluoro-phenyl)-ethanone","-","A55638","25489863","-","-","37.0 - 39.0","?C","38.0","Celsius"
"ClCC(=O)NC1=NC(=C(S1)C1=C(Cl)C=CC=C1)C1=C(Cl)C=CC=C1","-","EN300-01952","771","N-[4,5-Bis-(2-chloro-phenyl)-thiazol-2-yl]-2-chloro-acetamide","-","A55638","25489863","-","-","135.0 - 137.0","?C","136.0","Celsius"
"NS(=O)(=O)C1=CC(NC(=O)CCl)=CC=C1","135202-69-6","EN300-01954","772","2-Chloro-N-(3-sulfamoyl-phenyl)-acetamide","-","A55638","25489863","-","-","162.0 - 171.0","?C","166.0","Celsius"
"CC1=CC=C(C=C1)C1=CSC(NC(=O)CCl)=N1","6081-87-4","EN300-01955","773","2-Chloro-N-(4-p-tolyl-thiazol-2-yl)-acetamide","-","A55638","25489863","-","-","169.0 - 171.0","?C","170.0","Celsius"
"CCOC(=O)C1=C(NC(=O)C(C)Cl)SC=C1C1=CC=CC=C1","-","EN300-01958","774","2-(2-Chloro-propionylamino)-4-phenyl-thiophene-3-carboxylic acid ethyl ester","-","A55638","25489863","-","-","250.0 - 252.0","?C","251.0","Celsius"
"COCCOC1=C(NC(=O)CCl)C=C(C=C1)C(F)(F)F","-","EN300-01962","775","2-Chloro-N-[2-(2-methoxy-ethoxy)-5-trifluoromethyl-phenyl]-acetamide","-","A55638","25489863","-","-","80.0 - 82.0","?C","81.0","Celsius"
"CCC1=C(NC(=O)CCl)C(C)=CC=C1","32428-71-0","EN300-01964","776","2-Chloro-N-(2-ethyl-6-methyl-phenyl)-acetamide","-","A55638","25489863","-","-","100.0 - 110.0","?C","105.0","Celsius"
"NC(=O)C1=C(NC(=O)CCl)SC2=C1CCC2","-","EN300-01966","777","2-(2-Chloro-acetylamino)-5,6-dihydro-4H-cyclopenta[b]thiophene-3-carboxylic acid amide","-","A55638","25489863","-","-","181.0 - 183.0","?C","182.0","Celsius"
"CC1CCCCC1NC(=O)CCl","-","EN300-01968","778","2-Chloro-N-(2-methyl-cyclohexyl)-acetamide","-","A55638","25489863","-","-","100.0 - 102.0","?C","101.0","Celsius"
"ClCC(=O)NC1=NN=C(O1)C1=CC=CC=C1","7659-20-3","EN300-01974","779","2-Chloro-N-(5-phenyl-[1,3,4]oxadiazol-2-yl)-acetamide","-","A55638","25489863","-","-","219.0 - 221.0","?C","220.0","Celsius"
"CN1C(=O)N(CC2=CC=CC=C2)C(N)=C(Br)C1=O","-","EN300-01976","780","6-Amino-1-benzyl-5-bromo-3-methyl-1H-pyrimidine-2,4-dione","-","A55638","25489863","-","-","210.0 - 212.0","?C","211.0","Celsius"
"CCC1=CC=C(C=C1)C1=CSC(NC(=O)C(C)Cl)=N1","-","EN300-01978","781","2-Chloro-N-[4-(4-ethyl-phenyl)-thiazol-2-yl]-propionamide","-","A55638","25489863","-","-","108.0 - 110.0","?C","109.0","Celsius"
"CCCC1=CC=C(C=C1)C(=O)CCl","105443-49-0","EN300-01980","782","2-Chloro-1-(4-propyl-phenyl)-ethanone","-","A55638","25489863","-","-","30.0 - 32.0","?C","31.0","Celsius"
"CC1=C(Cl)C=C(NC(=O)C(Cl)C2=CC=CC=C2)C=C1","-","EN300-01993","784","2-Chloro-N-(3-chloro-4-methyl-phenyl)-2-phenyl-acetamide","-","A55638","25489863","-","-","120.0 - 122.0","?C","121.0","Celsius"
"CC1=C(C)C(C#N)=C(NC(=O)CCl)S1","124476-88-6","EN300-02006","788","2-Chloro-N-(3-cyano-4,5-dimethyl-thiophen-2-yl)-acetamide","-","A55638","25489863","-","-","180.0 - 182.0","?C","181.0","Celsius"
"CC1=C(C)C2=C(S1)N=C(CCl)NC2=O","89567-05-5","EN300-02007","789","2-Chloromethyl-5,6-dimethyl-3H-thieno[2,3-d]pyrimidin-4-one","-","A55638","25489863","-","-","190.0 - 192.0","?C","191.0","Celsius"
"[O-][N+](=O)C1=C(Cl)C=CC(=C1)S(=O)(=O)NC1=C(Cl)N=C2C=CC=CC2=N1","-","EN300-02017","791","4-Chloro-N-(3-chloro-quinoxalin-2-yl)-3-nitro-benzenesulfonamide","-","A55638","25489863","-","-","180.0 - 182.0","?C","181.0","Celsius"
"FC1=CC=C(C=C1)S(=O)(=O)NC1=C(Cl)N=C2C=CC=CC2=N1","-","EN300-02018","792","N-(3-Chloro-quinoxalin-2-yl)-4-fluoro-benzenesulfonamide","-","A55638","25489863","-","-","181.0 - 183.0","?C","182.0","Celsius"
"CC1CCC2=C(C1)SC1=C2C(=O)NC(CCl)=N1","-","EN300-02020","793","2-Chloromethyl-7-methyl-5,6,7,8-tetrahydro-3H-benzo[4,5]thieno[2,3-d]pyrimidin-4-one","-","A55638","25489863","-","-","180.0 - 182.0","?C","181.0","Celsius"
"CC1=C(C)C=C(C=C1)C(=O)CCl","50690-08-9","EN300-02021","794","2-Chloro-1-(3,4-dimethyl-phenyl)-ethanone","-","A55638","25489863","-","-","51.0 - 53.0","?C","52.0","Celsius"
"CCOC(=O)C1=C(C)C2=C(S1)N=C(CCl)NC2=O","89567-06-6","EN300-02031","796","2-Chloromethyl-5-methyl-4-oxo-3,4-dihydro-thieno[2,3-d]pyrimidine-6-carboxylic acid ethyl ester","-","A55638","25489863","-","-","190.0 - 192.0","?C","191.0","Celsius"
"FC1=CC=C(C=C1)C1=CSC(NC(=O)CCl)=N1","83558-09-2","EN300-02041","797","2-Chloro-N-[4-(4-fluoro-phenyl)-thiazol-2-yl]-acetamide","-","A55638","25489863","-","-","142.0 - 144.0","?C","143.0","Celsius"