"SMILES","CASRN","EXTERNALID","N","NAME","NAME","ARTICLEID","PUBMEDID","PAGE","TABLE","Melting Point {measured}","UNIT {Melting Point}","Melting Point {measured, converted}","UNIT {Melting Point}"
"CC1=NN(C2CCS(=O)(=O)C2)C(N)=C1","27280-97-3","EN300-09040","3146","1-(1,1-dioxidotetrahydrothien-3-yl)-3-methyl-1H-pyrazol-5-amine","-","A55638","25489863","-","-","215.0 - 217.0","?C","216.0","Celsius"
"OC(=O)COC1=CC2=C(OC3=C2C=CC=C3)C=C1","-","EN300-09041","3147","(dibenzo[b,d]furan-2-yloxy)acetic acid","-","A55638","25489863","-","-","132.0 - 134.0","?C","133.0","Celsius"
"CC1CCC2(CC1)NC(=O)N(N)C2=O","16252-93-0","EN300-09043","3148","3-amino-8-methyl-1,3-diazaspiro[4.5]decane-2,4-dione","-","A55638","25489863","-","-","118.0 - 120.0","?C","119.0","Celsius"
"CN(CC(=O)NC1=CC=C(F)C=C1)C(=O)CCl","-","EN300-09052","3150","2-chloro-N-{2-[(4-fluorophenyl)amino]-2-oxoethyl}-N-methylacetamide","-","A55638","25489863","-","-","159.0 - 161.0","?C","160.0","Celsius"
"CC1=C(CSCC(O)=O)C(C)=NO1","-","EN300-09058","3152","{[(3,5-dimethylisoxazol-4-yl)methyl]thio}acetic acid","-","A55638","25489863","-","-","92.0 - 94.0","?C","93.0","Celsius"
"CSCC1=C(OC2=C1C=CC=C2)C(O)=O","-","EN300-09060","3153","3-[(methylthio)methyl]-1-benzofuran-2-carboxylic acid","-","A55638","25489863","-","-","100.0 - 102.0","?C","101.0","Celsius"
"[O-][N+](=O)C1=C(Br)C=C2OCCOC2=C1","59820-92-7","EN300-09062","3154","6-bromo-7-nitro-2,3-dihydro-1,4-benzodioxine","-","A55638","25489863","-","-","167.0 - 169.0","?C","168.0","Celsius"
"CCN(CC)S(=O)(=O)C1=CC(=C(C=C1)N1CCNCC1)[N+]([O-])=O","-","EN300-09063","3155","N,N-diethyl-3-nitro-4-piperazin-1-ylbenzenesulfonamide","-","A55638","25489863","-","-","131.0 - 133.0","?C","132.0","Celsius"
"NCC(C1=CNC2=C1C=CC=C2)C1=C(Cl)C=C(Cl)C=C1","-","EN300-09064","3156","2-(2,4-dichlorophenyl)-2-(1H-indol-3-yl)ethanamine","-","A55638","25489863","-","-","130.0 - 132.0","?C","131.0","Celsius"
"COC1=C(O)C=CC(=C1)C(C[N+]([O-])=O)C1=CNC2=C1C=CC=C2","-","EN300-09066","3157","4-[1-(1H-indol-3-yl)-2-nitroethyl]-2-methoxyphenol","-","A55638","25489863","-","-","115.0 - 117.0","?C","116.0","Celsius"
"OC(=O)C1=CC=C(C=C1)S(=O)(=O)C(F)F","4837-22-3","EN300-09067","3158","4-[(difluoromethyl)sulfonyl]benzoic acid","-","A55638","25489863","-","-","232.0 - 234.0","?C","233.0","Celsius"
"CCC1=C(O)C=C2OC(=O)C=C(CCl)C2=C1","-","EN300-09068","3159","4-(chloromethyl)-6-ethyl-7-hydroxy-2H-chromen-2-one","-","A55638","25489863","-","-","216.0 - 218.0","?C","217.0","Celsius"
"CC1=C(C)C2=C(S1)N=C(C)N=C2S","-","EN300-09069","3160","2,5,6-trimethylthieno[2,3-d]pyrimidine-4-thiol","-","A55638","25489863","-","-","193.0 - 195.0","?C","194.0","Celsius"
"[O-][N+](=O)C1=C(Cl)C=CC(=C1)S(=O)(=O)NCCN1CCOCC1","-","EN300-09071","3161","4-chloro-N-(2-morpholin-4-ylethyl)-3-nitrobenzenesulfonamide","-","A55638","25489863","-","-","119.0 - 121.0","?C","120.0","Celsius"
"NC(=O)CCS(=O)(=O)CCCl","1562-40-9","EN300-09073","3162","3-[(2-chloroethyl)sulfonyl]propanamide","-","A55638","25489863","-","-","139.0 - 141.0","?C","140.0","Celsius"
"COC1=C(OC)C(Cl)=CC(=C1)C(O)=O","20624-87-7","EN300-09075","3163","3-chloro-4,5-dimethoxybenzoic acid","-","A55638","25489863","-","-","191.0 - 193.0","?C","192.0","Celsius"
"ClCC(=O)NCC(C1=CNC2=C1C=CC=C2)C1=C(Cl)C=C(Cl)C=C1","-","EN300-09076","3164","2-chloro-N-[2-(2,4-dichlorophenyl)-2-(1H-indol-3-yl)ethyl]acetamide","-","A55638","25489863","-","-","73.0 - 75.0","?C","74.0","Celsius"
"NC1=CC(=NN1CCO)C1=CC=CC=C1","14085-42-8","EN300-09077","3165","2-(5-amino-3-phenyl-1H-pyrazol-1-yl)ethanol","-","A55638","25489863","-","-","142.0 - 144.0","?C","143.0","Celsius"
"OC(=O)CSCC1=CC(Cl)=C(Cl)C=C1","65051-00-5","EN300-09081","3167","[(3,4-dichlorobenzyl)thio]acetic acid","-","A55638","25489863","-","-","67.0 - 69.0","?C","68.0","Celsius"
"OC(=O)CSCC1=CC=C(F)C=C1","65051-24-3","EN300-09082","3168","[(4-fluorobenzyl)thio]acetic acid","-","A55638","25489863","-","-","71.0 - 73.0","?C","72.0","Celsius"
"COC(=O)C1=CC2=C(C=C1)N=NN2O","-","EN300-09086","3169","methyl 1-hydroxy-1H-1,2,3-benzotriazole-6-carboxylate","-","A55638","25489863","-","-","166.0 - 168.0","?C","167.0","Celsius"
"CC1=CC(CSCC(O)=O)=CC=C1","34722-35-5","EN300-09087","3170","[(3-methylbenzyl)thio]acetic acid","-","A55638","25489863","-","-","74.0 - 76.0","?C","75.0","Celsius"
"CN(C)CCCNS(=O)(=O)C1=CC(=C(Cl)C=C1)[N+]([O-])=O","53803-81-9","EN300-09088","3171","4-chloro-N-[3-(dimethylamino)propyl]-3-nitrobenzenesulfonamide","-","A55638","25489863","-","-","98.0 - 100.0","?C","99.0","Celsius"
"CC1=C(COC2=C(C=CC=C2)C(O)=O)C=CC=C1","-","EN300-09091","3172","2-[(2-methylbenzyl)oxy]benzoic acid","-","A55638","25489863","-","-","103.0 - 105.0","?C","104.0","Celsius"
"CON=CC1=CC=C(C=C1)C(O)=O","61471-43-0","EN300-09099","3173","4-[(methoxyimino)methyl]benzoic acid","-","A55638","25489863","-","-","183.0 - 185.0","?C","184.0","Celsius"
"CCNC1=NC2=C(S1)C=CC(Cl)=C2","-","EN300-09107","3175","5-chloro-N-ethyl-1,3-benzothiazol-2-amine","-","A55638","25489863","-","-","118.0 - 120.0","?C","119.0","Celsius"
"NNC(=S)NC1CCCC1","-","EN300-09111","3176","N-cyclopentylhydrazinecarbothioamide","-","A55638","25489863","-","-","76.0 - 78.0","?C","77.0","Celsius"
"OC1=C(C=O)C=C(CCl)C=C1","23731-06-8","EN300-09129","3177","5-(chloromethyl)-2-hydroxybenzaldehyde","-","A55638","25489863","-","-","87.0 - 89.0","?C","88.0","Celsius"
"CCN(CC)C(=O)C1=CC=C(N)C=C1","51207-85-3","EN300-09130","3178","4-amino-N,N-diethylbenzamide","-","A55638","25489863","-","-","118.0 - 120.0","?C","119.0","Celsius"
"[O-][N+](=O)C1=C2C=NC=CC2=C(Br)C=C1","63927-23-1","EN300-09137","3180","5-bromo-8-nitroisoquinoline","-","A55638","25489863","-","-","134.0 - 136.0","?C","135.0","Celsius"
"CCCOC1=CC=C(OCCBr)C=C1","-","EN300-09138","3181","1-(2-bromoethoxy)-4-propoxybenzene","-","A55638","25489863","-","-","45.0 - 47.0","?C","46.0","Celsius"
"CC(C)(C)C1=CC=C(C=C1)C(=O)NC(=O)CCl","-","EN300-09141","3182","4-tert-butyl-N-(chloroacetyl)benzamide","-","A55638","25489863","-","-","120.0 - 122.0","?C","121.0","Celsius"
"OC1=CC2=C(OC3=C2CCCC3)C=C1","1133-79-5","EN300-09147","3183","6,7,8,9-tetrahydrodibenzo[b,d]furan-2-ol","-","A55638","25489863","-","-","103.0 - 105.0","?C","104.0","Celsius"
"CC(=O)C1=CC=C(C=C1)C1=CC=C(O1)C(O)=O","52938-95-1","EN300-09150","3185","5-(4-acetylphenyl)-2-furoic acid","-","A55638","25489863","-","-","219.0 - 221.0","?C","220.0","Celsius"
"NC1=C(C=O)C(=O)C2=C(O1)C=CC=C2","61424-76-8","EN300-09152","3186","2-amino-4-oxo-4H-chromene-3-carbaldehyde","-","A55638","25489863","-","-","249.0 - 251.0","?C","250.0","Celsius"
"CC1=CC(OCC(=O)N2CC3=C(CC2C(O)=O)C=CC=C3)=CC(C)=C1","-","EN300-09158","3187","2-[(3,5-dimethylphenoxy)acetyl]-1,2,3,4-tetrahydroisoquinoline-3-carboxylic acid","-","A55638","25489863","-","-","161.0 - 165.0","?C","163.0","Celsius"
"CCC1=C(Cl)C=C2C(CCl)=CC(=O)OC2=C1","-","EN300-09162","3188","6-chloro-4-(chloromethyl)-7-ethyl-2H-chromen-2-one","-","A55638","25489863","-","-","170.0 - 172.0","?C","171.0","Celsius"
"OC(=O)CSCC1=NC2=C(C(=CS2)C2=CC=CS2)C(=O)N1","-","EN300-09164","3189","{[(4-oxo-5-thien-2-yl-3,4-dihydrothieno[2,3-d]pyrimidin-2-yl)methyl]thio}acetic acid","-","A55638","25489863","-","-","148.0 - 150.0","?C","149.0","Celsius"
"OC(=O)C1=NN(C=C1O)C1=C(C=CC=C1)C(F)(F)F","-","EN300-09169","3190","4-hydroxy-1-[2-(trifluoromethyl)phenyl]-1H-pyrazole-3-carboxylic acid","-","A55638","25489863","-","-","141.0 - 145.0","?C","143.0","Celsius"
"CCCCOC1=C(OC)C=CC(C=O)=C1","34127-96-3","EN300-09170","3191","3-butoxy-4-methoxybenzaldehyde","-","A55638","25489863","-","-","39.0 - 41.0","?C","40.0","Celsius"
"COC1=C(OC)C=C2C(NCCC2=C1)C1=CC=CC=C1","4118-36-9","EN300-09172","3192","6,7-dimethoxy-1-phenyl-1,2,3,4-tetrahydroisoquinoline","-","A55638","25489863","-","-","111.0 - 113.0","?C","112.0","Celsius"
"NNC(=O)CCN1CCCC1","59737-32-5","EN300-09175","3193","3-pyrrolidin-1-ylpropanohydrazide","-","A55638","25489863","-","-","137.0 - 139.0","?C","138.0","Celsius"
"CC1CCN(CC1)C1=C(C=C(C=C1)[N+]([O-])=O)C(O)=O","78243-27-3","EN300-09176","3194","2-(4-methylpiperidin-1-yl)-5-nitrobenzoic acid","-","A55638","25489863","-","-","160.0 - 162.0","?C","161.0","Celsius"
"OC(=O)C1=C(OCC2=C(Br)C=CC=C2)C=CC=C1","-","EN300-09180","3195","2-[(2-bromobenzyl)oxy]benzoic acid","-","A55638","25489863","-","-","129.0 - 131.0","?C","130.0","Celsius"
"CC(C)=CC(=O)NC1=C(C(O)=O)C(=CS1)C1=CC=CC=C1","-","EN300-09183","3196","2-[(3-methylbut-2-enoyl)amino]-4-phenylthiophene-3-carboxylic acid","-","A55638","25489863","-","-","202.0 - 204.0","?C","203.0","Celsius"
"OC(=O)C1=C(OCC2=CC(Br)=CC=C2)C=CC=C1","-","EN300-09184","3197","2-[(3-bromobenzyl)oxy]benzoic acid","-","A55638","25489863","-","-","108.0 - 110.0","?C","109.0","Celsius"
"OC(=O)C1=CC=C(CNC2=NS(=O)(=O)C3=C2C=CC=C3)C=C1","-","EN300-09185","3198","4-{[(1,1-dioxido-1,2-benzisothiazol-3-yl)amino]methyl}benzoic acid","-","A55638","25489863","-","-","303.0 - 305.0","?C","304.0","Celsius"
"ClCC1=CC(=CC=C1)S(=O)(=O)N1CCOCC1","-","EN300-09193","3201","4-{[3-(chloromethyl)phenyl]sulfonyl}morpholine","-","A55638","25489863","-","-","92.0 - 94.0","?C","93.0","Celsius"
"CCC1=C(NC(=O)CCl)C=CC=C1","57503-02-3","EN300-09194","3202","2-chloro-N-(2-ethylphenyl)acetamide","-","A55638","25489863","-","-","106.0 - 108.0","?C","107.0","Celsius"
"ClCC1=CC(=O)OC2=C1C=CC(Br)=C2","-","EN300-09195","3203","7-bromo-4-(chloromethyl)-2H-chromen-2-one","-","A55638","25489863","-","-","160.0 - 162.0","?C","161.0","Celsius"
"CC(=O)C1=CC=C(C=C1)S(=O)(=O)N1CCCCC1C(O)=O","-","EN300-09198","3204","1-[(4-acetylphenyl)sulfonyl]piperidine-2-carboxylic acid","-","A55638","25489863","-","-","132.0 - 134.0","?C","133.0","Celsius"
"CC(C)C1=CC=C(C=C1)C(N)=S","53515-20-1","EN300-09201","3205","4-isopropylbenzenecarbothioamide","-","A55638","25489863","-","-","148.0 - 150.0","?C","149.0","Celsius"
"CC(SC1=NN=C(NC2=CC(C)=CC(C)=C2)S1)C(O)=O","-","EN300-09202","3206","2-({5-[(3,5-dimethylphenyl)amino]-1,3,4-thiadiazol-2-yl}thio)propanoic acid","-","A55638","25489863","-","-","127.0 - 129.0","?C","128.0","Celsius"
"CCN(C1=CC=CC=C1)S(=O)(=O)C1=CN=C(NN)C=C1","-","EN300-09205","3207","N-ethyl-6-hydrazino-N-phenylpyridine-3-sulfonamide","-","A55638","25489863","-","-","175.0 - 177.0","?C","176.0","Celsius"
"CC(N)C1=CC=C(C=C1)N1C=CN=C1","-","EN300-09208","3208","1-[4-(1H-imidazol-1-yl)phenyl]ethanamine","-","A55638","25489863","-","-","50.0 - 52.0","?C","51.0","Celsius"
"OC(=O)C1=CC=C(O1)C1=NC2=C(S1)C=CC=C2","32277-89-7","EN300-09210","3209","5-(1,3-benzothiazol-2-yl)-2-furoic acid","-","A55638","25489863","-","-","180.0 - 188.0","?C","184.0","Celsius"
"CC1=CC(NN)=NC2=C(C)C=CC=C12","57369-93-4","EN300-09211","3210","2-hydrazino-4,8-dimethylquinoline","-","A55638","25489863","-","-","168.0 - 170.0","?C","169.0","Celsius"
"ClCC(=O)N(C1CCS(=O)(=O)C1)C1CCCCC1","-","EN300-09221","3211","2-chloro-N-cyclohexyl-N-(1,1-dioxidotetrahydrothien-3-yl)acetamide","-","A55638","25489863","-","-","162.0 - 164.0","?C","163.0","Celsius"
"FC1=CC2=C(C=C1)N=C(NCC1=CC=CC=C1)S2","-","EN300-09225","3213","N-benzyl-6-fluoro-1,3-benzothiazol-2-amine","-","A55638","25489863","-","-","182.0 - 184.0","?C","183.0","Celsius"
"OC(=O)C1=CC(=CC=C1)N1C=NN=N1","3217-15-0","EN300-09239","3217","3-(1H-tetrazol-1-yl)benzoic acid","-","A55638","25489863","-","-","168.0 - 170.0","?C","169.0","Celsius"
"CCN1C(=O)C(=O)NC2=C1C=CC(=C2)C(O)=O","-","EN300-09242","3219","1-ethyl-2,3-dioxo-1,2,3,4-tetrahydroquinoxaline-6-carboxylic acid","-","A55638","25489863","-","-","270.0 - 285.0","?C","278.0","Celsius"
"COC1=C(OCC(O)=O)C=CC(C=O)=C1","1660-19-1","EN300-09245","3220","(4-formyl-2-methoxyphenoxy)acetic acid","-","A55638","25489863","-","-","184.0 - 186.0","?C","185.0","Celsius"
"ClCCS(=O)(=O)C1=C(Cl)C=CC(Cl)=C1","-","EN300-09254","3221","1,4-dichloro-2-[(2-chloroethyl)sulfonyl]benzene","-","A55638","25489863","-","-","80.0 - 82.0","?C","81.0","Celsius"
"ClCCS(=O)(=O)C1=CC=C(Br)C=C1","26732-25-2","EN300-09255","3222","1-bromo-4-[(2-chloroethyl)sulfonyl]benzene","-","A55638","25489863","-","-","110.0 - 112.0","?C","111.0","Celsius"
"CC(N)C1=CC=C(C=C1)S(N)(=O)=O","-","EN300-09256","3223","4-(1-aminoethyl)benzenesulfonamide","-","A55638","25489863","-","-","148.0 - 150.0","?C","149.0","Celsius"
"OC(=O)CN(CC=C)S(=O)(=O)C1=CC=C(Cl)C=C1","-","EN300-09258","3224","{allyl[(4-chlorophenyl)sulfonyl]amino}acetic acid","-","A55638","25489863","-","-","136.0 - 138.0","?C","137.0","Celsius"
"CCOC(=O)C1=C(CCl)NC(=O)NC1C1=CC=C(OC)C=C1","-","EN300-09259","3225","ethyl 6-(chloromethyl)-4-(4-methoxyphenyl)-2-oxo-1,2,3,4-tetrahydropyrimidine-5-carboxylate","-","A55638","25489863","-","-","169.0 - 171.0","?C","170.0","Celsius"
"OC(=O)C1=CC2=C(S1)C1=C(SC2)C=CC(F)=C1","-","EN300-09263","3226","8-fluoro-4H-thieno[3,2-c]thiochromene-2-carboxylic acid","-","A55638","25489863","-","-","279.0 - 281.0","?C","280.0","Celsius"
"CC(=O)C1=C(C)C(CCl)=C(C)C=C1C","-","EN300-09264","3227","1-[3-(chloromethyl)-2,4,6-trimethylphenyl]ethanone","-","A55638","25489863","-","-","74.0 - 76.0","?C","75.0","Celsius"
"CCCCN1N=C(C=CC1=O)C(O)=O","103854-71-3","EN300-09268","3228","1-butyl-6-oxo-1,6-dihydropyridazine-3-carboxylic acid","-","A55638","25489863","-","-","119.0 - 121.0","?C","120.0","Celsius"
"FC1=C(C=CC=C1)C1=NN=C(S)N1","-","EN300-09272","3229","5-(2-fluorophenyl)-4H-1,2,4-triazole-3-thiol","-","A55638","25489863","-","-","154.0 - 156.0","?C","155.0","Celsius"
"CC1=CC(=CC(C)=C1)C(=O)C=C1NC(=O)CS1","-","EN300-09274","3230","(2E)-2-[2-(3,5-dimethylphenyl)-2-oxoethylidene]-1,3-thiazolidin-4-one","-","A55638","25489863","-","-","163.0 - 165.0","?C","164.0","Celsius"
"CC1=C(COC2=CC=C(CC(O)=O)C=C2)C(C)=NO1","-","EN300-09276","3231","{4-[(3,5-dimethylisoxazol-4-yl)methoxy]phenyl}acetic acid","-","A55638","25489863","-","-","138.0 - 140.0","?C","139.0","Celsius"
"CN(C1=CC=CC=C1)S(=O)(=O)C1=C(C=CC=C1)C(O)=O","26638-45-9","EN300-09277","3232","2-{[methyl(phenyl)amino]sulfonyl}benzoic acid","-","A55638","25489863","-","-","136.0 - 138.0","?C","137.0","Celsius"
"N#CCC1=CSC(=N1)C1=CC=CC=C1","16441-25-1","EN300-09278","3233","(2-phenyl-1,3-thiazol-4-yl)acetonitrile","-","A55638","25489863","-","-","57.0 - 59.0","?C","58.0","Celsius"
"CC1=CC(COC2=C(C=CC=C2)C(O)=O)=CC=C1","-","EN300-09279","3234","2-[(3-methylbenzyl)oxy]benzoic acid","-","A55638","25489863","-","-","155.0 - 157.0","?C","156.0","Celsius"
"CN(C)CCNS(=O)(=O)C1=CC(=C(Cl)C=C1)[N+]([O-])=O","-","EN300-09286","3235","4-chloro-N-[2-(dimethylamino)ethyl]-3-nitrobenzenesulfonamide","-","A55638","25489863","-","-","88.0 - 90.0","?C","89.0","Celsius"
"ClC1=C2C=C(SC2=NC(=N1)C1=NC=CC=C1)C1=CC=CC=C1","-","EN300-09293","3237","4-chloro-6-phenyl-2-pyridin-2-ylthieno[2,3-d]pyrimidine","-","A55638","25489863","-","-","186.0 - 188.0","?C","187.0","Celsius"
"ClC1=C2C(SC=C2C2=CC=CC=C2)=NC(=N1)C1=NC=CC=C1","-","EN300-09299","3238","4-chloro-5-phenyl-2-pyridin-2-ylthieno[2,3-d]pyrimidine","-","A55638","25489863","-","-","160.0 - 162.0","?C","161.0","Celsius"
"ClC1=C2C(SC=C2C2=CC=CS2)=NC(CN2CCCCC2)=N1","-","EN300-09306","3239","4-chloro-2-(piperidin-1-ylmethyl)-5-thien-2-ylthieno[2,3-d]pyrimidine","-","A55638","25489863","-","-","89.0 - 91.0","?C","90.0","Celsius"
"CC1=CC(C=O)=C(C)N1C1CC1","640264-45-5","EN300-09318","3241","1-Cyclopropyl-2,5-dimethyl-1H-pyrrole-3-carbaldehyde","-","A55638","25489863","-","-","71.0 - 75.0","?C","73.0","Celsius"
"O=C1NC(=O)C2(CCCC3=C2C=CS3)N1","69300-50-1","EN300-09319","3242","6,7-dihydro-2'H,5H,5'H-spiro[1-benzothiophene-4,4'-imidazolidine]-2',5'-dione","-","A55638","25489863","-","-","267.0 - 269.0","?C","268.0","Celsius"
"CC1=C(SC2=C1C(=O)NC(C)=N2)C(O)=O","-","EN300-09321","3243","2,5-dimethyl-4-oxo-3,4-dihydrothieno[2,3-d]pyrimidine-6-carboxylic acid","-","A55638","25489863","-","-","388.0 - 390.0","?C","389.0","Celsius"
"OC(=O)C1=C(C=CC=C1)N1C=NN=N1","116570-12-8","EN300-09325","3244","2-(1H-tetrazol-1-yl)benzoic acid","-","A55638","25489863","-","-","190.0 - 194.0","?C","192.0","Celsius"
"CC1=CC(C(=O)CCC(O)=O)=C(C)S1","6007-77-8","EN300-09327","3245","4-(2,5-dimethylthien-3-yl)-4-oxobutanoic acid","-","A55638","25489863","-","-","105.0 - 108.0","?C","106.0","Celsius"
"CCOC1=C(OC)C=CC(C=CC(O)=O)=C1","-","EN300-09330","3246","(2E)-3-(3-ethoxy-4-methoxyphenyl)acrylic acid","-","A55638","25489863","-","-","164.0 - 166.0","?C","165.0","Celsius"
"OC(=O)CCCN1C(=O)OC2=C1C=CC=C2","13610-66-7","EN300-09331","3247","4-(2-oxo-1,3-benzoxazol-3(2H)-yl)butanoic acid","-","A55638","25489863","-","-","141.0 - 143.0","?C","142.0","Celsius"
"OC(=O)CN1C(=O)OC2=C1C=CC=C2","13610-49-6","EN300-09332","3248","(2-oxo-1,3-benzoxazol-3(2H)-yl)acetic acid","-","A55638","25489863","-","-","178.0 - 180.0","?C","179.0","Celsius"
"CCCN1N=C(C=CC1=O)C(O)=O","-","EN300-09334","3249","6-oxo-1-propyl-1,6-dihydropyridazine-3-carboxylic acid","-","A55638","25489863","-","-","132.0 - 134.0","?C","133.0","Celsius"
"FC1=C(F)C(F)=C(NC(=O)CNC(=O)CCl)C=C1","-","EN300-09335","3250","2-chloro-N-{2-oxo-2-[(2,3,4-trifluorophenyl)amino]ethyl}acetamide","-","A55638","25489863","-","-","160.0 - 162.0","?C","161.0","Celsius"
"COC1=C(OCC(N)=O)C=CC(C=O)=C1","186685-89-2","EN300-09336","3251","2-(4-formyl-2-methoxyphenoxy)acetamide","-","A55638","25489863","-","-","155.0 - 157.0","?C","156.0","Celsius"
"CC1=CC(C(=O)CCl)=C(C)N1CC(F)(F)F","-","EN300-09345","3253","2-chloro-1-[2,5-dimethyl-1-(2,2,2-trifluoroethyl)-1H-pyrrol-3-yl]ethanone","-","A55638","25489863","-","-","143.0 - 145.0","?C","144.0","Celsius"
"CCOC1=CC(CC=C)=C(O)C=C1","142875-24-9","EN300-09347","3255","2-allyl-4-ethoxyphenol","-","A55638","25489863","-","-","135.0 - 137.0","?C","136.0","Celsius"
"CC(=O)NC1=C(C(O)=O)C(=CS1)C1=CC=CS1","-","EN300-09351","3257","5'-(acetylamino)-2,3'-bithiophene-4'-carboxylic acid","-","A55638","25489863","-","-","227.0 - 229.0","?C","228.0","Celsius"
"CN1CCN(CC1)C1=C(C=C(C=C1)C(O)=O)[N+]([O-])=O","137726-00-2","EN300-09353","3258","4-(4-methylpiperazin-1-yl)-3-nitrobenzoic acid","-","A55638","25489863","-","-","160.0 - 162.0","?C","161.0","Celsius"
"OC(=O)C1=CC(=CC=C1)S(=O)(=O)NC1=C(C=CC=C1)C1=CC=CC=C1","-","EN300-09354","3259","3-[(1,1'-biphenyl-2-ylamino)sulfonyl]benzoic acid","-","A55638","25489863","-","-","164.0 - 166.0","?C","165.0","Celsius"
"CC(C)C(NC1=NS(=O)(=O)C2=C1C=CC=C2)C(O)=O","-","EN300-09364","3261","2-[(1,1-dioxido-1,2-benzisothiazol-3-yl)amino]-3-methylbutanoic acid","-","A55638","25489863","-","-","234.0 - 236.0","?C","235.0","Celsius"
"CC1=CC(C(=O)CCl)=C(C)N1C1=NC=CS1","-","EN300-09375","3262","2-chloro-1-[2,5-dimethyl-1-(1,3-thiazol-2-yl)-1H-pyrrol-3-yl]ethanone","-","A55638","25489863","-","-","85.0 - 95.0","?C","90.0","Celsius"
"CCOC(=O)C1=CNOC1=N","34859-64-8","EN300-09377","3263","ethyl 5-aminoisoxazole-4-carboxylate","-","A55638","25489863","-","-","<17.0","?C","17.0","Celsius"
"FC1=CC=C(C=C1)C1=C2C=CC=CC2=C(Cl)N=N1","-","EN300-09382","3264","1-chloro-4-(4-fluorophenyl)phthalazine","-","A55638","25489863","-","-","186.0 - 188.0","?C","187.0","Celsius"
"OC1=CC=C(NC(=O)C2=CC=C(Cl)C=C2)C=C1","19207-92-2","EN300-09384","3265","4-chloro-N-(4-hydroxyphenyl)benzamide","-","A55638","25489863","-","-","246.0 - 248.0","?C","247.0","Celsius"
"CN1N(C(=O)C(NC(=O)CSC2=C(C=CC=C2)C(O)=O)=C1C)C1=CC=CC=C1","-","EN300-09386","3266","2-({2-[(1,5-dimethyl-3-oxo-2-phenyl-2,3-dihydro-1H-pyrazol-4-yl)amino]-2-oxoethyl}thio)benzoic acid","-","A55638","25489863","-","-","120.0 - 123.0","?C","122.0","Celsius"
"OC1=C(C=CC=C1)C(=O)C1=CON=C1","53658-17-6","EN300-09387","3267","(2-hydroxyphenyl)(isoxazol-4-yl)methanone","-","A55638","25489863","-","-","113.0 - 115.0","?C","114.0","Celsius"
"CC1=CC=C(C=C1)C1=NN=C(S)O1","31130-15-1","EN300-09395","3270","5-(4-methylphenyl)-1,3,4-oxadiazole-2-thiol","-","A55638","25489863","-","-","266.0 - 268.0","?C","267.0","Celsius"
"CN1C(S)=NN=C1C1=C(Cl)C=CC=C1","80590-50-7","EN300-09398","3271","5-(2-chlorophenyl)-4-methyl-4H-1,2,4-triazole-3-thiol","-","A55638","25489863","-","-","144.0 - 146.0","?C","145.0","Celsius"