"SMILES","CASRN","EXTERNALID","N","NAME","NAME","ARTICLEID","PUBMEDID","PAGE","TABLE","Melting Point {measured}","UNIT {Melting Point}","Melting Point {measured, converted}","UNIT {Melting Point}"
"COCCNC(=O)CC#N","15029-44-4","EN300-01321","551","2-Cyano-N-(2-methoxy-ethyl)-acetamide","-","A55638","25489863","-","-","78.0 - 80.0","?C","79.0","Celsius"
"CC(NC(=O)CC#N)C1=CC=CC=C1","-","EN300-01322","552","2-Cyano-N-(1-phenyl-ethyl)-acetamide","-","A55638","25489863","-","-","115.0 - 117.0","?C","116.0","Celsius"
"CC1=CC=C(NC(=O)CC#N)C=C1","6876-54-6","EN300-01323","553","2-Cyano-N-p-tolyl-acetamide","-","A55638","25489863","-","-","188.0 - 190.0","?C","189.0","Celsius"
"O=C(CC#N)NCC1=CC=CO1","59749-85-8","EN300-01324","554","2-Cyano-N-furan-2-ylmethyl-acetamide","-","A55638","25489863","-","-","93.0 - 95.0","?C","94.0","Celsius"
"CCC1=C(C)C(C(O)=O)=C2C=CC=CC2=N1","74960-58-0","EN300-01328","556","2-Ethyl-3-methyl-quinoline-4-carboxylic acid","-","A55638","25489863","-","-","190.0 - 192.0","?C","191.0","Celsius"
"ClC1=C(NC(=O)CC#N)C=CC=C1","50982-66-6","EN300-01331","557","N-(2-Chloro-phenyl)-2-cyano-acetamide","-","A55638","25489863","-","-","124.0 - 126.0","?C","125.0","Celsius"
"C=CCNC(=O)CC#N","30764-67-1","EN300-01332","558","N-Allyl-2-cyano-acetamide","-","A55638","25489863","-","-","65.0 - 67.0","?C","66.0","Celsius"
"CCCC1=C(CC)C(C(O)=O)=C2C=CC=CC2=N1","-","EN300-01335","559","3-Ethyl-2-propyl-quinoline-4-carboxylic acid","-","A55638","25489863","-","-","222.0 - 224.0","?C","223.0","Celsius"
"OC(=O)C1=C2C=CC=CC2=NC2=C1CN(CC1=CC=CC=C1)CC2","99117-21-2","EN300-01338","562","2-Benzyl-1,2,3,4-tetrahydro-benzo[b][1,6]naphthyridine-10-carboxylic acid","-","A55638","25489863","-","-","224.0 - 226.0","?C","225.0","Celsius"
"CC(=O)CC(=O)NC1=CC=C(Br)C=C1","38418-24-5","EN300-01346","563","N-(4-Bromo-phenyl)-3-oxo-butyramide","-","A55638","25489863","-","-","137.0 - 139.0","?C","138.0","Celsius"
"CN1CCN(CC1)C(=O)CC#N","15029-34-2","EN300-01349","564","3-(4-Methyl-piperazin-1-yl)-3-oxo-propionitrile","-","A55638","25489863","-","-","118.0 - 120.0","?C","119.0","Celsius"
"CC(=O)CC(=O)NC1=C(C=CC=C1)C(F)(F)F","81761-28-6","EN300-01350","565","3-Oxo-N-(2-trifluoromethyl-phenyl)-butyramide","-","A55638","25489863","-","-","60.0 - 62.0","?C","61.0","Celsius"
"O=C(CC(=O)NCC1CCCO1)NCC1CCCO1","-","EN300-01356","566","N,N'-Bis-(tetrahydro-furan-2-ylmethyl)-malonamide","-","A55638","25489863","-","-","77.0 - 79.0","?C","78.0","Celsius"
"CC(C)CCNC(=O)CC(=O)NCCC(C)C","126947-45-3","EN300-01357","567","N,N'-Bis-(3-methyl-butyl)-malonamide","-","A55638","25489863","-","-","69.0 - 71.0","?C","70.0","Celsius"
"COC1=CC=C(CCNC(=O)CC(=O)NCCC2=CC=C(OC)C=C2)C=C1","-","EN300-01358","568","N,N'-Bis-[2-(4-methoxy-phenyl)-ethyl]-malonamide","-","A55638","25489863","-","-","161.0 - 163.0","?C","162.0","Celsius"
"CCOC1=CC=C(NC(=O)CC#N)C=C1","51838-07-4","EN300-01360","569","2-Cyano-N-(4-ethoxy-phenyl)-acetamide","-","A55638","25489863","-","-","95.0 - 100.0","?C","97.5","Celsius"
"O=C(CC#N)NCC1CCCO1","-","EN300-01361","570","2-Cyano-N-(tetrahydro-furan-2-ylmethyl)-acetamide","-","A55638","25489863","-","-","90.0 - 94.0","?C","92.0","Celsius"
"NC1=CC(=O)NC(=O)N1CC1=CC=CC=C1","41862-11-7","EN300-01363","571","6-Amino-1-benzyl-1H-pyrimidine-2,4-dione","-","A55638","25489863","-","-","284.0 - 286.0","?C","285.0","Celsius"
"CC(=O)CC(=O)N1CCOCC1","16695-54-8","EN300-01364","572","1-Morpholin-4-yl-butane-1,3-dione","-","A55638","25489863","-","-","68.0 - 70.0","?C","69.0","Celsius"
"CC(=O)CCC1=CC2=C(OCO2)C=C1","55418-52-5","EN300-01368","573","4-Benzo[1,3]dioxol-5-yl-butan-2-one","-","A55638","25489863","-","-","50.0 - 52.0","?C","51.0","Celsius"
"CCOC(=O)CC1=NC2=C(N1)C=CC=C2","14741-71-0","EN300-01371","574","(1H-Benzoimidazol-2-yl)-acetic acid ethyl ester","-","A55638","25489863","-","-","179.0 - 181.0","?C","180.0","Celsius"
"COC1=C(OC)C=C(C=C1)C1=CSC(CC#N)=N1","-","EN300-01373","575","[4-(3,4-Dimethoxy-phenyl)-thiazol-2-yl]-acetonitrile","-","A55638","25489863","-","-","101.0 - 103.0","?C","102.0","Celsius"
"CC1=NC(=CS1)C1=CC=C(Cl)C=C1","24840-75-3","EN300-01384","576","4-(4-Chloro-phenyl)-2-methyl-thiazole","-","A55638","25489863","-","-","119.0 - 121.0","?C","120.0","Celsius"
"COC1=CC=C(C=C1)C1=CSC(C)=N1","50834-78-1","EN300-01385","577","4-(4-Methoxy-phenyl)-2-methyl-thiazole","-","A55638","25489863","-","-","55.0 - 57.0","?C","56.0","Celsius"
"CC1=CC(NC2=NC(=O)CS2)=CC=C1","27052-16-0","EN300-01387","578","2-m-Tolylamino-thiazol-4-one","-","A55638","25489863","-","-","160.0 - 162.0","?C","161.0","Celsius"
"O=C(CC#N)NC1CC1","15029-37-5","EN300-01389","579","2-Cyano-N-cyclopropyl-acetamide","-","A55638","25489863","-","-","87.0 - 90.0","?C","88.5","Celsius"
"COC1=C(NC(=O)CC#N)C=CC=C1","63631-09-4","EN300-01392","580","2-Cyano-N-(2-methoxy-phenyl)-acetamide","-","A55638","25489863","-","-","87.0 - 90.0","?C","88.5","Celsius"
"O=C(CC#N)N1CCN(CC1)C(C1=CC=CC=C1)C1=CC=CC=C1","-","EN300-01394","581","3-(4-Benzhydryl-piperazin-1-yl)-3-oxo-propionitrile","-","A55638","25489863","-","-","110.0 - 112.0","?C","111.0","Celsius"
"ClC1=CC(NC(=O)CC#N)=CC=C1","17722-12-2","EN300-01397","582","N-(3-Chloro-phenyl)-2-cyano-acetamide","-","A55638","25489863","-","-","139.0 - 141.0","?C","140.0","Celsius"
"COC1=C(Cl)C=C(NC(=O)CC#N)C=C1","-","EN300-01399","583","N-(3-Chloro-4-methoxy-phenyl)-2-cyano-acetamide","-","A55638","25489863","-","-","110.0 - 112.0","?C","111.0","Celsius"
"COCCCNC(=O)CC#N","15029-45-5","EN300-01408","585","2-Cyano-N-(3-methoxy-propyl)-acetamide","-","A55638","25489863","-","-","63.0 - 65.0","?C","64.0","Celsius"
"N#CCC1=NN=C2CCCCCN12","116598-69-7","EN300-01415","588","(6,7,8,9-Tetrahydro-5H-[1,2,4]triazolo[4,3-a]azepin-3-yl)-acetonitrile","-","A55638","25489863","-","-","113.0 - 115.0","?C","114.0","Celsius"
"FC(F)(F)C(=O)CC1=NC2=C(N1)C=CC=C2","782-55-8","EN300-01416","589","3-(1H-Benzoimidazol-2-yl)-1,1,1-trifluoro-propan-2-one","-","A55638","25489863","-","-","249.0 - 251.0","?C","250.0","Celsius"
"COC1=C(OC)C=C(C=C1)C1=CSC(C)=N1","-","EN300-01420","590","4-(3,4-Dimethoxy-phenyl)-2-methyl-thiazole","-","A55638","25489863","-","-","74.0 - 76.0","?C","75.0","Celsius"
"NS(=O)(=O)C1=CC=C(NC(=O)CC#N)C=C1","32933-40-7","EN300-01421","591","2-Cyano-N-(4-sulfamoyl-phenyl)-acetamide","-","A55638","25489863","-","-","215.0 - 217.0","?C","216.0","Celsius"
"FC1=C(NC(=O)CC(=O)NC2=C(F)C=CC=C2)C=CC=C1","-","EN300-01427","592","N,N'-Bis-(2-fluoro-phenyl)-malonamide","-","A55638","25489863","-","-","158.0 - 160.0","?C","159.0","Celsius"
"COC1=C(NC(=O)CC(=O)NC2=C(OC)C=CC=C2)C=CC=C1","7056-72-6","EN300-01428","593","N,N'-Bis-(2-methoxy-phenyl)-malonamide","-","A55638","25489863","-","-","154.0 - 156.0","?C","155.0","Celsius"
"O=C(CC#N)NC1=NC=CS1","90158-62-6","EN300-01432","594","2-Cyano-N-thiazol-2-yl-acetamide","-","A55638","25489863","-","-","228.0 - 230.0","?C","229.0","Celsius"
"FC1=CC=C(NC(=O)CC(=O)NC2=CC=C(F)C=C2)C=C1","1677-29-8","EN300-01433","595","N,N'-Bis-(4-fluoro-phenyl)-malonamide","-","A55638","25489863","-","-","217.0 - 219.0","?C","218.0","Celsius"
"O=C(CC(=O)NC1=CC=CC=C1)NC1=CC=CC=C1","621-10-3","EN300-01435","596","N,N'-Diphenyl-malonamide","-","A55638","25489863","-","-","220.0 - 222.0","?C","221.0","Celsius"
"COC1=C(NC(=O)CC(=O)NC2=C(OC)C=CC(Cl)=C2)C=C(Cl)C=C1","-","EN300-01442","597","N,N'-Bis-(5-chloro-2-methoxy-phenyl)-malonamide","-","A55638","25489863","-","-","98.0 - 101.0","?C","99.5","Celsius"
"CC(=O)CC(=O)NC1=CC(Cl)=CC=C1","2415-87-4","EN300-01446","598","n-(3-chloro-phenyl)-3-oxo-butyramide","-","A55638","25489863","-","-","105.0 - 107.0","?C","106.0","Celsius"
"CC(=O)CC(=O)NC1=CC=C(F)C=C1","2713-85-1","EN300-01449","599","N-(4-Fluoro-phenyl)-3-oxo-butyramide","-","A55638","25489863","-","-","101.0 - 103.0","?C","102.0","Celsius"
"ClC1=CC(NC(=O)CC(=O)NC2=C(Cl)C=CC(Cl)=C2)=C(Cl)C=C1","116476-54-1","EN300-01451","600","N,N'-Bis-(2,5-dichloro-phenyl)-malonamide","-","A55638","25489863","-","-","226.0 - 228.0","?C","227.0","Celsius"
"CCOC(=O)C1=NN(C(=O)C1)C1=CC=C(Cl)C=C1","-","EN300-01458","601","1-(4-Chloro-phenyl)-5-oxo-4,5-dihydro-1H-pyrazole-3-carboxylic acid ethyl ester","-","A55638","25489863","-","-","141.0 - 143.0","?C","142.0","Celsius"
"CC1=NC(=CS1)C1=CC=C(F)C=C1","450-29-3","EN300-01459","602","4-(4-Fluoro-phenyl)-2-methyl-thiazole","-","A55638","25489863","-","-","74.0 - 76.0","?C","75.0","Celsius"
"CC(=O)CC(=O)NC1=CC(Cl)=C(C)C=C1","52793-03-0","EN300-01462","603","N-(3-Chloro-4-methyl-phenyl)-3-oxo-butyramide","-","A55638","25489863","-","-","108.0 - 110.0","?C","109.0","Celsius"
"CC(C)CN(CC(C)C)C(=O)CC(=O)N(CC(C)C)CC(C)C","14287-99-1","EN300-01471","604","N,N,N',N'-Tetraisobutyl-malonamide","-","A55638","25489863","-","-","51.0 - 53.0","?C","52.0","Celsius"
"O=C(CC(=O)NCC1=CC=CC=C1)NCC1=CC=CC=C1","10255-99-9","EN300-01472","605","N,N'-Dibenzyl-malonamide","-","A55638","25489863","-","-","119.0 - 121.0","?C","120.0","Celsius"
"ClC1=CC(=C(Cl)C=C1)S(=O)(=O)CC#N","-","EN300-01475","606","(2,5-Dichloro-benzenesulfonyl)-acetonitrile","-","A55638","25489863","-","-","114.0 - 116.0","?C","115.0","Celsius"
"CC1CCC2=C(C1)SC1=C2C(=O)NC(CC#N)=N1","-","EN300-01479","607","(7-Methyl-4-oxo-3,4,5,6,7,8-hexahydro-benzo[4,5]thieno[2,3-d]pyrimidin-2-yl)-acetonitrile","-","A55638","25489863","-","-","266.0 - 268.0","?C","267.0","Celsius"
"COC1=CC(=CC=C1)C(=O)NN1C(=O)CSC1=S","-","EN300-01484","608","3-Methoxy-N-(4-oxo-2-thioxo-thiazolidin-3-yl)-benzamide","-","A55638","25489863","-","-","156.0 - 158.0","?C","157.0","Celsius"
"CC1=CC=C(C=C1)N1C(=O)CC2=C(C=CC=C2)C1=O","73109-31-6","EN300-01492","609","2-p-Tolyl-4H-isoquinoline-1,3-dione","-","A55638","25489863","-","-","173.0 - 175.0","?C","174.0","Celsius"
"FC(F)(F)C1=CC(NC(=O)CCl)=C(Cl)C=C1","328-26-7","EN300-01495","611","2-Chloro-N-(2-chloro-5-trifluoromethyl-phenyl)-acetamide","-","A55638","25489863","-","-","71.0 - 73.0","?C","72.0","Celsius"
"FC(F)SC1=CC=C(NC(=O)CCl)C=C1","-","EN300-01497","613","2-Chloro-N-(4-difluoromethylsulfanyl-phenyl)-acetamide","-","A55638","25489863","-","-","55.0 - 57.0","?C","56.0","Celsius"
"ClCC(=O)NC1=C(C#N)C2=C(CCC2)S1","-","EN300-01502","615","2-Chloro-N-(3-cyano-5,6-dihydro-4H-cyclopenta[b]thiophen-2-yl)-acetamide","-","A55638","25489863","-","-","176.0 - 178.0","?C","177.0","Celsius"
"OC(=O)C1=C(NC(=O)CCl)C=CC=C1","14422-49-2","EN300-01511","618","2-(2-Chloro-acetylamino)-benzoic acid","-","A55638","25489863","-","-","185.0 - 187.0","?C","186.0","Celsius"
"FC(F)(F)OC1=CC=C(NC(=O)CCl)C=C1","-","EN300-01515","620","2-Chloro-N-(4-trifluoromethoxy-phenyl)-acetamide","-","A55638","25489863","-","-","71.0 - 74.0","?C","72.5","Celsius"
"ClCC(=O)NC12CC3CC(CC(C3)C1)C2","5689-59-8","EN300-01516","621","N-Adamantan-1-yl-2-chloro-acetamide","-","A55638","25489863","-","-","110.0 - 112.0","?C","111.0","Celsius"
"ClCC(=O)NC1=CC=C(OCC2=CC=CC=C2)C=C1","19514-92-2","EN300-01517","622","N-(4-Benzyloxy-phenyl)-2-chloro-acetamide","-","A55638","25489863","-","-","118.0 - 120.0","?C","119.0","Celsius"
"CC1=CC(NC(=O)CCl)=CC=C1","32428-61-8","EN300-01519","623","2-Chloro-N-m-tolyl-acetamide","-","A55638","25489863","-","-","128.0 - 130.0","?C","129.0","Celsius"
"COC1=CC=C(NC(=O)CCl)C=C1","22303-36-2","EN300-01523","624","2-Chloro-N-(4-Methoxy-Phenyl)-Acetamide","-","A55638","25489863","-","-","122.0 - 124.0","?C","123.0","Celsius"
"CC1=CC(NC(=O)CCl)=CC(C)=C1","-","EN300-01526","625","2-Chloro-N-(3,5-dimethyl-phenyl)-acetamide","-","A55638","25489863","-","-","141.0 - 143.0","?C","142.0","Celsius"
"CS(=O)(=O)C1=CC(=C(Cl)C=C1)S(C)(=O)=O","17481-98-0","EN300-01529","626","1-Chloro-2,4-bis-methanesulfonyl-benzene","-","A55638","25489863","-","-","176.0 - 178.0","?C","177.0","Celsius"
"CS(=O)(=O)C1=CC(=C(Cl)C=C1)[N+]([O-])=O","97-07-4","EN300-01530","627","1-Chloro-4-methanesulfonyl-2-nitro-benzene","-","A55638","25489863","-","-","121.0 - 123.0","?C","122.0","Celsius"
"NC1=C(Br)C(=O)NC(=O)N1CC1=CC=CC=C1","72816-87-6","EN300-01532","628","6-Amino-1-benzyl-5-bromo-1H-pyrimidine-2,4-dione","-","A55638","25489863","-","-","235.0 - 237.0","?C","236.0","Celsius"
"ClCC(=O)NC1=C(Br)C=CC=C1","6090-78-4","EN300-01541","629","N-(2-Bromo-phenyl)-2-chloro-acetamide","-","A55638","25489863","-","-","78.0 - 80.0","?C","79.0","Celsius"
"[O-][N+](=O)C1=C(Cl)C=CC(=C1)S(=O)(=O)NC1=CC=C(Br)C=C1","-","EN300-01546","630","N-(4-Bromo-phenyl)-4-chloro-3-nitro-benzenesulfonamide","-","A55638","25489863","-","-","123.0 - 125.0","?C","124.0","Celsius"
"CC1=CC(C)=C(NS(=O)(=O)C2=CC(=C(Cl)C=C2)[N+]([O-])=O)C=C1","-","EN300-01547","631","4-Chloro-N-(2,4-dimethyl-phenyl)-3-nitro-benzenesulfonamide","-","A55638","25489863","-","-","99.0 - 101.0","?C","100.0","Celsius"
"ClCC(=O)NC1=CC2=C(C=C1)C(=O)C1=C(C=CC=C1)C2=O","143210-98-4","EN300-01558","633","2-Chloro-N-(9,10-dioxo-9,10-dihydro-anthracen-2-yl)-acetamide","-","A55638","25489863","-","-","298.0 - 300.0","?C","299.0","Celsius"
"CCN(C1=CC=CC=C1)S(=O)(=O)C1=CC(=C(Cl)C=C1)[N+]([O-])=O","-","EN300-01560","634","4-Chloro-N-ethyl-3-nitro-N-phenyl-benzenesulfonamide","-","A55638","25489863","-","-","122.0 - 124.0","?C","123.0","Celsius"
"OC(=O)C1=CC(NC(=O)CCl)=CC=C1","28547-08-2","EN300-01564","635","3-(2-Chloro-acetylamino)-benzoic acid","-","A55638","25489863","-","-","220.0 - 222.0","?C","221.0","Celsius"
"CN(C(=O)CCl)C1=CC=CC=C1","2620-05-5","EN300-01565","636","2-Chloro-N-methyl-N-phenyl-acetamide","-","A55638","25489863","-","-","59.0 - 62.0","?C","60.5","Celsius"
"[O-][N+](=O)C1=C(Cl)C=CC(=C1)S(=O)(=O)N1CCCCC1","53162-43-9","EN300-01566","637","1-(4-Chloro-3-nitro-benzenesulfonyl)-piperidine","-","A55638","25489863","-","-","61.0 - 63.0","?C","62.0","Celsius"
"FC1=CC=C(CNC(=O)CCl)C=C1","-","EN300-01568","639","2-Chloro-N-(4-fluoro-benzyl)-acetamide","-","A55638","25489863","-","-","92.0 - 95.0","?C","93.5","Celsius"
"CC(C)C1CCC(C)CC1OC(=O)CCl","-","EN300-01569","640","Chloro-acetic acid 2-isopropyl-5-methyl-cyclohexyl ester","-","A55638","25489863","-","-","65.0 - 66.0","?C","65.5","Celsius"
"COC1=CC2=C(C=C1)N=C(C)C=C2Cl","50593-73-2","EN300-01570","641","4-Chloro-6-methoxy-2-methyl-quinoline","-","A55638","25489863","-","-","99.0 - 101.0","?C","100.0","Celsius"
"CCOC1=CC=C(NC(=O)CCl)C=C1","2153-08-4","EN300-01572","642","2-Chloro-N-(4-ethoxy-phenyl)-acetamide","-","A55638","25489863","-","-","149.0 - 151.0","?C","150.0","Celsius"
"CC1=CC(C)=C(NC(=O)CCl)C(C)=C1","3910-51-8","EN300-01574","643","2-Chloro-N-(2,4,6-trimethyl-phenyl)-acetamide","-","A55638","25489863","-","-","153.0 - 157.0","?C","155.0","Celsius"
"COC1=CC(=C(NC(=O)CCl)C=C1)[N+]([O-])=O","3223-77-6","EN300-01575","644","2-Chloro-N-(4-methoxy-2-nitro-phenyl)-acetamide","-","A55638","25489863","-","-","98.0 - 100.0","?C","99.0","Celsius"
"[O-][N+](=O)C1=C(Cl)C=CC(=C1)S(=O)(=O)N1CCOCC1","22179-31-3","EN300-01578","645","4-(4-Chloro-3-nitro-benzenesulfonyl)-morpholine","-","A55638","25489863","-","-","153.0 - 155.0","?C","154.0","Celsius"
"CC(=O)C1=CC(NC(=O)CCl)=CC=C1","42865-69-0","EN300-01579","646","N-(3-Acetyl-phenyl)-2-chloro-acetamide","-","A55638","25489863","-","-","112.0 - 114.0","?C","113.0","Celsius"
"CC1=C(NC(=O)CCl)C=CC=C1Cl","99585-94-1","EN300-01580","647","2-Chloro-N-(3-chloro-2-methyl-phenyl)-acetamide","-","A55638","25489863","-","-","71.0 - 74.0","?C","72.5","Celsius"
"ClCC(=O)NCC1=CC=C(Cl)C=C1","99585-88-3","EN300-01582","648","2-Chloro-N-(4-chloro-benzyl)-acetamide","-","A55638","25489863","-","-","107.0 - 109.0","?C","108.0","Celsius"
"COC1=C(CNC(=O)CCl)C=CC=C1","-","EN300-01583","649","2-Chloro-N-(2-methoxy-benzyl)-acetamide","-","A55638","25489863","-","-","94.0 - 96.0","?C","95.0","Celsius"
"COC1=CC(NC(=O)CCl)=CC=C1","17641-08-6","EN300-01584","650","2-Chloro-N-(3-methoxy-phenyl)-acetamide","-","A55638","25489863","-","-","73.0 - 75.0","?C","74.0","Celsius"
"COC1=C(NC(=O)CCl)C=C(C)C=C1","85817-61-4","EN300-01585","651","2-Chloro-N-(2-methoxy-5-methyl-phenyl)-acetamide","-","A55638","25489863","-","-","73.0 - 75.0","?C","74.0","Celsius"
"ClCC(=O)NCC1=CC=CO1","40914-13-4","EN300-01586","652","2-Chloro-N-furan-2-ylmethyl-acetamide","-","A55638","25489863","-","-","81.0 - 83.0","?C","82.0","Celsius"
"COC1=CC(NC(=O)CCl)=C(OC)C=C1","22158-78-7","EN300-01587","653","2-Chloro-N-(2,5-dimethoxy-phenyl)-acetamide","-","A55638","25489863","-","-","169.0 - 171.0","?C","170.0","Celsius"
"CC1=C(NC(=O)CCl)C=CC=C1","37394-93-7","EN300-01592","654","2-Chloro-N-o-tolyl-acetamide","-","A55638","25489863","-","-","75.0 - 77.0","?C","76.0","Celsius"
"COC1=C(NC(=O)CCl)C=C(C)C(Cl)=C1","-","EN300-01593","655","2-Chloro-N-(4-chloro-2-methoxy-5-methyl-phenyl)-acetamide","-","A55638","25489863","-","-","167.0 - 169.0","?C","168.0","Celsius"
"CC1=CC=C(NC(=O)CCl)C=C1","16634-82-5","EN300-01594","656","2-Chloro-N-p-tolyl-acetamide","-","A55638","25489863","-","-","159.0 - 161.0","?C","160.0","Celsius"
"CC1=C(Cl)C=C(NC(=O)CCl)C=C1","99585-97-4","EN300-01596","657","2-Chloro-N-(3-chloro-4-methyl-phenyl)-acetamide","-","A55638","25489863","-","-","73.0 - 75.0","?C","74.0","Celsius"
"FC1=C(F)C=C(NC(=O)CCl)C=C1","76778-13-7","EN300-01597","658","2-Chloro-N-(3,4-difluoro-phenyl)-acetamide","-","A55638","25489863","-","-","106.0 - 108.0","?C","107.0","Celsius"
"CC1=C(C=C(NC(=O)CCl)C=C1)S(=O)(=O)N1CCCCCC1","-","EN300-01603","659","N-[3-(Azepane-1-sulfonyl)-4-methyl-phenyl]-2-chloro-acetamide","-","A55638","25489863","-","-","74.0 - 76.0","?C","75.0","Celsius"
"FC1=C(NC(=O)CCl)C=CC(Br)=C1","-","EN300-01608","660","N-(4-Bromo-2-fluoro-phenyl)-2-chloro-acetamide","-","A55638","25489863","-","-","133.0 - 135.0","?C","134.0","Celsius"
"FC1=CC(Cl)=C(NC(=O)CCl)C=C1","-","EN300-01609","661","2-Chloro-N-(2-chloro-4-fluoro-phenyl)-acetamide","-","A55638","25489863","-","-","76.0 - 78.0","?C","77.0","Celsius"
"ClCC(=O)NC1=CC(=CC=C1)C#N","-","EN300-01617","662","2-Chloro-N-(3-cyano-phenyl)-acetamide","-","A55638","25489863","-","-","143.0 - 145.0","?C","144.0","Celsius"
"CN(C)S(=O)(=O)C1=CC(NC(=O)CCl)=CC=C1","-","EN300-01618","663","2-Chloro-N-(3-dimethylsulfamoyl-phenyl)-acetamide","-","A55638","25489863","-","-","74.0 - 78.0","?C","76.0","Celsius"
"ClCC(=O)NC1=CC(=CC=C1)S(=O)(=O)N1CCOCC1","-","EN300-01619","664","2-Chloro-N-[3-(morpholine-4-sulfonyl)-phenyl]-acetamide","-","A55638","25489863","-","-","157.0 - 159.0","?C","158.0","Celsius"
"CC1=C(NC(=O)CCl)C=C(C=C1)S(=O)(=O)N1CCOCC1","-","EN300-01628","665","2-Chloro-N-[2-methyl-5-(morpholine-4-sulfonyl)-phenyl]-acetamide","-","A55638","25489863","-","-","76.0 - 78.0","?C","77.0","Celsius"
"ClCC(=O)N1CCC2=C1C=CC=C2","17133-48-1","EN300-01630","666","2-Chloro-1-(2,3-dihydro-indol-1-yl)-ethanone","-","A55638","25489863","-","-","118.0 - 120.0","?C","119.0","Celsius"
"ClCC(=O)NC1=CC=C(C=C1)S(=O)(=O)N1CCOCC1","35959-60-5","EN300-01633","667","2-Chloro-N-[4-(morpholine-4-sulfonyl)-phenyl]-acetamide","-","A55638","25489863","-","-","145.0 - 147.0","?C","146.0","Celsius"
"CCN(CC)S(=O)(=O)C1=CC=C(NC(=O)CCl)C=C1","35974-23-3","EN300-01634","668","2-Chloro-N-(4-diethylsulfamoyl-phenyl)-acetamide","-","A55638","25489863","-","-","103.0 - 105.0","?C","104.0","Celsius"
"ClCC(=O)NC1=CC=C(C=C1)S(=O)(=O)N1CCCC1","-","EN300-01638","670","2-Chloro-N-[4-(pyrrolidine-1-sulfonyl)-phenyl]-acetamide","-","A55638","25489863","-","-","185.0 - 187.0","?C","186.0","Celsius"
"FC(F)(F)C1=C(NC(=O)CCl)C=CC(Cl)=C1","-","EN300-01642","671","2-Chloro-N-(4-chloro-2-trifluoromethyl-phenyl)-acetamide","-","A55638","25489863","-","-","69.0 - 72.0","?C","70.5","Celsius"
"CC1=CC(Cl)=C(NC(=O)CCl)C=C1","-","EN300-01643","672","2-Chloro-N-(2-chloro-4-methyl-phenyl)-acetamide","-","A55638","25489863","-","-","98.0 - 100.0","?C","99.0","Celsius"
"ClCC(=O)NC1=C(Cl)C=CC(=C1)S(=O)(=O)N1CCOCC1","-","EN300-01646","673","2-Chloro-N-[2-chloro-5-(morpholine-4-sulfonyl)-phenyl]-acetamide","-","A55638","25489863","-","-","131.0 - 133.0","?C","132.0","Celsius"
"CCN(CC)S(=O)(=O)C1=C(C)C=CC(NC(=O)CCl)=C1","-","EN300-01647","674","2-Chloro-N-(3-diethylsulfamoyl-4-methyl-phenyl)-acetamide","-","A55638","25489863","-","-","70.0 - 72.0","?C","71.0","Celsius"