"SMILES","CASRN","EXTERNALID","N","NAME","NAME","ARTICLEID","PUBMEDID","PAGE","TABLE","Melting Point {measured}","UNIT {Melting Point}","Melting Point {measured, converted}","UNIT {Melting Point}"
"CN1C(C)=NN=C1C1=CC=C(C=C1)C(O)=O","-","EN300-113363","6161","4-(dimethyl-4H-1,2,4-triazol-3-yl)benzoic acid","-","A55638","25489863","-","-","269.0 - 271.0","?C","270.0","Celsius"
"CCN1C=NN=C1C1=CC=C(C=C1)C(O)=O","-","EN300-113368","6162","4-(4-ethyl-4H-1,2,4-triazol-3-yl)benzoic acid","-","A55638","25489863","-","-","211.0 - 213.0","?C","212.0","Celsius"
"NC(=O)CCC1=CSC(N)=N1","-","EN300-113371","6164","3-(2-amino-1,3-thiazol-4-yl)propanamide","-","A55638","25489863","-","-","141.0 - 143.0","?C","142.0","Celsius"
"NC(=O)C1=CC(N)=C(NCC2=CC=CC=C2)C=C1","-","EN300-113375","6165","3-amino-4-(benzylamino)benzamide","-","A55638","25489863","-","-","169.0 - 171.0","?C","170.0","Celsius"
"COC1=C(CBr)C=C(C=C1)C#N","-","EN300-113389","6167","3-(bromomethyl)-4-methoxybenzonitrile","-","A55638","25489863","-","-","123.0 - 125.0","?C","124.0","Celsius"
"CS(=O)(=O)NC1=C(F)C=C(C=C1)S(Cl)(=O)=O","-","EN300-113397","6168","3-fluoro-4-methanesulfonamidobenzene-1-sulfonyl chloride","-","A55638","25489863","-","-","164.0 - 166.0","?C","165.0","Celsius"
"OC(=O)CCCNC(=O)C1=CN=CC=C1","-","EN300-113400","6170","4-(pyridin-3-ylformamido)butanoic acid","-","A55638","25489863","-","-","211.0 - 213.0","?C","212.0","Celsius"
"CC(C)(C)OC(=O)N1CCC2=C(C1)C=C(O)C=C2","-","EN300-113404","6172","tert-butyl 7-hydroxy-1,2,3,4-tetrahydroisoquinoline-2-carboxylate","-","A55638","25489863","-","-","134.0 - 136.0","?C","135.0","Celsius"
"CC1=C(OC(CN2C=C(Br)C=N2)=C1)C(O)=O","-","EN300-113407","6173","5-[(4-bromo-1H-pyrazol-1-yl)methyl]-3-methylfuran-2-carboxylic acid","-","A55638","25489863","-","-","122.0 - 124.0","?C","123.0","Celsius"
"CC1=C(C=C(CN2C=C(Br)C=N2)O1)C(O)=O","-","EN300-113409","6174","5-[(4-bromo-1H-pyrazol-1-yl)methyl]-2-methylfuran-3-carboxylic acid","-","A55638","25489863","-","-","159.0 - 161.0","?C","160.0","Celsius"
"CC1=C(CN2C=C(Br)C=N2)C=C(O1)C(O)=O","-","EN300-113410","6175","4-[(4-bromo-1H-pyrazol-1-yl)methyl]-5-methylfuran-2-carboxylic acid","-","A55638","25489863","-","-","154.0 - 156.0","?C","155.0","Celsius"
"[O-][N+](=O)C1=C(Br)N=CC(Cl)=C1","-","EN300-113419","6176","2-bromo-5-chloro-3-nitropyridine","-","A55638","25489863","-","-","75.0 - 77.0","?C","76.0","Celsius"
"OC(=O)CCCCC1=CC(O)=C(O)C=C1","-","EN300-113445","6178","5-(3,4-dihydroxyphenyl)pentanoic acid","-","A55638","25489863","-","-","93.0 - 95.0","?C","94.0","Celsius"
"OC1=CC(CC2CCC(=O)O2)=CC=C1","-","EN300-113446","6179","5-[(3-hydroxyphenyl)methyl]oxolan-2-one","-","A55638","25489863","-","-","102.0 - 104.0","?C","103.0","Celsius"
"SC1=NC=CN1CC1=CC=CC=C1","23269-10-5","EN300-11345","6180","1-benzyl-1H-imidazole-2-thiol","-","A55638","25489863","-","-","146.0 - 148.0","?C","147.0","Celsius"
"NC1=NC=C(C=C1)N1CCCC1=O","-","EN300-113456","6181","1-(6-aminopyridin-3-yl)pyrrolidin-2-one","-","A55638","25489863","-","-","165.0 - 167.0","?C","166.0","Celsius"
"NC(=O)[C@H]1CCCC[C@H]1C(O)=O","-","EN300-113458","6182","(1R,2S)-2-carbamoylcyclohexane-1-carboxylic acid","-","A55638","25489863","-","-","169.0 - 171.0","?C","170.0","Celsius"
"COC1=C(N)C=CC(NC(C)=O)=C1","-","EN300-113461","6183","N-(4-amino-3-methoxyphenyl)acetamide","-","A55638","25489863","-","-","128.0 - 130.0","?C","129.0","Celsius"
"CC1=CN(N=C1)C1=C(N)C=C(C)C=C1","-","EN300-113467","6186","5-methyl-2-(4-methyl-1H-pyrazol-1-yl)aniline","-","A55638","25489863","-","-","49.0 - 51.0","?C","50.0","Celsius"
"NC(=O)C1=CC(=C(Br)C=C1)C(F)(F)F","-","EN300-113469","6187","4-bromo-3-(trifluoromethyl)benzamide","-","A55638","25489863","-","-","138.0 - 140.0","?C","139.0","Celsius"
"[O-][N+](=O)C1=CC(NC2=CC=CC=C2)=CC=C1","-","EN300-113472","6188","3-nitro-N-phenylaniline","-","A55638","25489863","-","-","111.0 - 113.0","?C","112.0","Celsius"
"CCC1=C(C=C(C=C1)C(O)=O)C#N","-","EN300-113473","6189","3-cyano-4-ethylbenzoic acid","-","A55638","25489863","-","-","141.0 - 143.0","?C","142.0","Celsius"
"CN(C)C=CC(=O)C(F)(F)F","-","EN300-113478","6190","4-(dimethylamino)-1,1,1-trifluorobut-3-en-2-one","-","A55638","25489863","-","-","52.0 - 54.0","?C","53.0","Celsius"
"CC(C)OC1=C(C=C(N)C=C1)C#N","-","EN300-113481","6191","5-amino-2-(propan-2-yloxy)benzonitrile","-","A55638","25489863","-","-","39.0 - 41.0","?C","40.0","Celsius"
"OC1(CCC1)C1=CC=CC=C1","-","EN300-113491","6194","1-phenylcyclobutan-1-ol","-","A55638","25489863","-","-","39.0 - 41.0","?C","40.0","Celsius"
"[O-][N+](=O)C1=C(F)C=C2C=CC(Cl)=NC2=C1","-","EN300-113510","6195","2-chloro-6-fluoro-7-nitroquinoline","-","A55638","25489863","-","-","130.0 - 132.0","?C","131.0","Celsius"
"NC1=NC(CN2CCN(CC2)C2=NC=CS2)=CS1","-","EN300-113517","6197","4-{[4-(1,3-thiazol-2-yl)piperazin-1-yl]methyl}-1,3-thiazol-2-amine","-","A55638","25489863","-","-","169.0 - 171.0","?C","170.0","Celsius"
"NC1=C(C=C(Cl)N=C1)C(O)=O","-","EN300-113519","6198","5-amino-2-chloropyridine-4-carboxylic acid","-","A55638","25489863","-","-","289.0 - 291.0","?C","290.0","Celsius"
"COCCOC1=CC(CC(O)=O)=CC=C1","-","EN300-113520","6199","2-[3-(2-methoxyethoxy)phenyl]acetic acid","-","A55638","25489863","-","-","47.0 - 49.0","?C","48.0","Celsius"
"CC1=C(CC2=NNN=N2)C=CC=C1","-","EN300-113521","6200","5-[(2-methylphenyl)methyl]-2H-1,2,3,4-tetrazole","-","A55638","25489863","-","-","156.0 - 158.0","?C","157.0","Celsius"
"CS(=O)(=O)NC1=C(F)C=CC(Br)=C1","-","EN300-113537","6202","N-(5-bromo-2-fluorophenyl)methanesulfonamide","-","A55638","25489863","-","-","143.0 - 145.0","?C","144.0","Celsius"
"ClCC1=C(ON=C1)C1=CC=C(Cl)C=C1","-","EN300-113542","6203","4-(chloromethyl)-5-(4-chlorophenyl)-1,2-oxazole","-","A55638","25489863","-","-","78.0 - 80.0","?C","79.0","Celsius"
"CC1=NC2=C(C=CN=C2)C(=O)N1","-","EN300-113546","6204","2-methyl-3H,4H-pyrido[3,4-d]pyrimidin-4-one","-","A55638","25489863","-","-","297.0 - 299.0","?C","298.0","Celsius"
"CC1CC(C)CC2(C1)NC(=O)N(CC(O)=O)C2=O","-","EN300-113548","6206","2-{7,9-dimethyl-2,4-dioxo-1,3-diazaspiro[4.5]decan-3-yl}acetic acid","-","A55638","25489863","-","-","259.0 - 261.0","?C","260.0","Celsius"
"CC(C)S(=O)(=O)NC1=C(F)C=CC=C1","-","EN300-113555","6208","N-(2-fluorophenyl)propane-2-sulfonamide","-","A55638","25489863","-","-","52.0 - 54.0","?C","53.0","Celsius"
"NC(=O)C1=C2N=CC=C(N2N=C1)C(O)=O","-","EN300-113564","6210","3-carbamoylpyrazolo[1,5-a]pyrimidine-7-carboxylic acid","-","A55638","25489863","-","-","199.0 - 201.0","?C","200.0","Celsius"
"OC(=O)C1=NOC(COC2=C(Cl)C=C(Cl)C=C2)=C1","-","EN300-113581","6213","5-(2,4-dichlorophenoxymethyl)-1,2-oxazole-3-carboxylic acid","-","A55638","25489863","-","-","151.0 - 153.0","?C","152.0","Celsius"
"CS(=O)(=O)NC1=C(F)C=C(C=C1)S(N)(=O)=O","-","EN300-113582","6214","3-fluoro-4-methanesulfonamidobenzene-1-sulfonamide","-","A55638","25489863","-","-","190.0 - 192.0","?C","191.0","Celsius"
"CS(=O)(=O)NC1=C(F)C=CC=C1","-","EN300-113583","6215","N-(2-fluorophenyl)methanesulfonamide","-","A55638","25489863","-","-","75.0 - 77.0","?C","76.0","Celsius"
"CNC(=O)COC1=CC(CC(O)=O)=CC=C1","-","EN300-113588","6216","2-{3-[(methylcarbamoyl)methoxy]phenyl}acetic acid","-","A55638","25489863","-","-","128.0 - 130.0","?C","129.0","Celsius"
"NC1=C(SC2=CC=CS2)C=CC(=C1)[N+]([O-])=O","-","EN300-113589","6217","5-nitro-2-(thiophen-2-ylsulfanyl)aniline","-","A55638","25489863","-","-","94.0 - 96.0","?C","95.0","Celsius"
"OC(=O)C1=C(C=CC(=C1)S(=O)(=O)N1CCCCC1)N1CCCC1","-","EN300-11359","6218","5-(piperidin-1-ylsulfonyl)-2-pyrrolidin-1-ylbenzoic acid","-","A55638","25489863","-","-","120.0 - 122.0","?C","121.0","Celsius"
"CC(C)C1=CC(=NN1C1=CC=CC=C1)C(O)=O","-","EN300-113591","6220","1-phenyl-5-(propan-2-yl)-1H-pyrazole-3-carboxylic acid","-","A55638","25489863","-","-","137.0 - 139.0","?C","138.0","Celsius"
"OCC1=C2C=CC=CC2=CN=C1","-","EN300-113597","6222","isoquinolin-4-ylmethanol","-","A55638","25489863","-","-","86.0 - 88.0","?C","87.0","Celsius"
"CCCCCCN1C=C(C(=O)NC1=O)S(Cl)(=O)=O","-","EN300-113599","6224","1-hexyl-2,4-dioxo-1,2,3,4-tetrahydropyrimidine-5-sulfonyl chloride","-","A55638","25489863","-","-","157.0 - 159.0","?C","158.0","Celsius"
"CC1=NC(O)=NC(C)=C1Br","-","EN300-113609","6226","5-bromo-4,6-dimethylpyrimidin-2-ol","-","A55638","25489863","-","-","210.0 - 212.0","?C","211.0","Celsius"
"OC(=O)CC1=CC=C(OC2=CC(=NC=C2)C#N)C=C1","-","EN300-113622","6229","2-{4-[(2-cyanopyridin-4-yl)oxy]phenyl}acetic acid","-","A55638","25489863","-","-","169.0 - 171.0","?C","170.0","Celsius"
"OC(=O)C1=CC(OC2=CC=C(Br)C=C2)=NC(Cl)=C1","-","EN300-113624","6230","2-(4-bromophenoxy)-6-chloropyridine-4-carboxylic acid","-","A55638","25489863","-","-","213.0 - 215.0","?C","214.0","Celsius"
"CC1=CC=C(S1)S(=O)(=O)NCCN","-","EN300-113626","6231","N-(2-aminoethyl)-5-methylthiophene-2-sulfonamide","-","A55638","25489863","-","-","94.0 - 96.0","?C","95.0","Celsius"
"NC1=CC(=NO1)C1CCOCC1","-","EN300-113628","6232","3-(oxan-4-yl)-1,2-oxazol-5-amine","-","A55638","25489863","-","-","159.0 - 161.0","?C","160.0","Celsius"
"CC(Cl)C(=O)C1=CC=C(NC(C)=O)C=C1","-","EN300-11363","6233","N-[4-(2-chloropropanoyl)phenyl]acetamide","-","A55638","25489863","-","-","190.0 - 193.0","?C","192.0","Celsius"
"CC(C)(C)SC1=CN=C(C=C1)C#N","-","EN300-113630","6234","5-(tert-butylsulfanyl)pyridine-2-carbonitrile","-","A55638","25489863","-","-","60.0 - 62.0","?C","61.0","Celsius"
"CN1C=C(C(=O)N(C)C1=O)S(=O)(=O)NN","-","EN300-113639","6238","1,3-dimethyl-2,4-dioxo-1,2,3,4-tetrahydropyrimidine-5-sulfonohydrazide","-","A55638","25489863","-","-","134.0 - 136.0","?C","135.0","Celsius"
"OC(=O)CCC(=O)C1=CC2=C(CCC2)C=C1","75382-32-0","EN300-11365","6239","4-(2,3-dihydro-1H-inden-5-yl)-4-oxobutanoic acid","-","A55638","25489863","-","-","123.0 - 125.0","?C","124.0","Celsius"
"CC(NC(=O)CCl)C1=CC=CS1","-","EN300-11366","6240","2-chloro-N-(1-thien-2-ylethyl)acetamide","-","A55638","25489863","-","-","92.0 - 94.0","?C","93.0","Celsius"
"FC1=CC2=C(CCCC2=O)C=C1","-","EN300-113665","6241","7-fluoro-1,2,3,4-tetrahydronaphthalen-1-one","-","A55638","25489863","-","-","56.0 - 58.0","?C","57.0","Celsius"
"NC1=CC(F)=CC(O)=C1","-","EN300-113685","6243","3-amino-5-fluorophenol","-","A55638","25489863","-","-","159.0 - 161.0","?C","160.0","Celsius"
"OC(=O)C1=C(F)C=C(F)C(I)=C1","-","EN300-113688","6244","2,4-difluoro-5-iodobenzoic acid","-","A55638","25489863","-","-","163.0 - 165.0","?C","164.0","Celsius"
"CC(C)C(N1CCCS1(=O)=O)C(O)=O","-","EN300-113689","6245","2-(1,1-dioxo-1$l^{6},2-thiazolidin-2-yl)-3-methylbutanoic acid","-","A55638","25489863","-","-","97.0 - 99.0","?C","98.0","Celsius"
"COC1=C(Cl)C=CC(CCC(O)=O)=C1","-","EN300-113692","6246","3-(4-chloro-3-methoxyphenyl)propanoic acid","-","A55638","25489863","-","-","132.0 - 134.0","?C","133.0","Celsius"
"OC(=O)C1(CCOCC1)OCC1=CC=CC=C1","-","EN300-113695","6248","4-(benzyloxy)oxane-4-carboxylic acid","-","A55638","25489863","-","-","69.0 - 71.0","?C","70.0","Celsius"
"CC(C)NCCC1=NC(=CN1)C1=CC=C(C=C1)S(C)(=O)=O","-","EN300-113697","6249","{2-[4-(4-methanesulfonylphenyl)-1H-imidazol-2-yl]ethyl}(propan-2-yl)amine","-","A55638","25489863","-","-","264.0 - 266.0","?C","265.0","Celsius"
"CC1=CC(NN)=NC2=C1C=CC(C)=C2C","-","EN300-11370","6250","2-hydrazino-4,7,8-trimethylquinoline","-","A55638","25489863","-","-","191.0 - 193.0","?C","192.0","Celsius"
"N1C=NC(=N1)C1=NC=CC=C1","-","EN300-113700","6251","2-(1H-1,2,4-triazol-3-yl)pyridine","-","A55638","25489863","-","-","159.0 - 161.0","?C","160.0","Celsius"
"OCC1=CN(N=N1)C1=C(Cl)C=CC=C1","-","EN300-113701","6252","[1-(2-chlorophenyl)-1H-1,2,3-triazol-4-yl]methanol","-","A55638","25489863","-","-","87.0 - 89.0","?C","88.0","Celsius"
"NC1=NNC2=C1C=CC=C2Cl","-","EN300-113711","6254","7-chloro-1H-indazol-3-amine","-","A55638","25489863","-","-","189.0 - 191.0","?C","190.0","Celsius"
"CC(OC1=CC(CO)=CC=C1)C(O)=O","-","EN300-113721","6257","2-[3-(hydroxymethyl)phenoxy]propanoic acid","-","A55638","25489863","-","-","95.0 - 97.0","?C","96.0","Celsius"
"COC1=C(C=C(C)C=C1)N1CC(CC1=O)C(O)=O","-","EN300-11373","6260","1-(2-methoxy-5-methylphenyl)-5-oxopyrrolidine-3-carboxylic acid","-","A55638","25489863","-","-","171.0 - 173.0","?C","172.0","Celsius"
"NC1=NC(CN2CCN(CC3=CC=CC=C3)CC2)=CS1","-","EN300-113731","6261","4-[(4-benzylpiperazin-1-yl)methyl]-1,3-thiazol-2-amine","-","A55638","25489863","-","-","110.0 - 112.0","?C","111.0","Celsius"
"NC1=NC(CN2CCN(CC2)C2=NC=CC=N2)=CS1","-","EN300-113732","6262","4-{[4-(pyrimidin-2-yl)piperazin-1-yl]methyl}-1,3-thiazol-2-amine","-","A55638","25489863","-","-","158.0 - 160.0","?C","159.0","Celsius"
"NC1=NC(CN2CCN(CC2)C2=CC=C(F)C=C2)=CS1","-","EN300-113733","6263","4-{[4-(4-fluorophenyl)piperazin-1-yl]methyl}-1,3-thiazol-2-amine","-","A55638","25489863","-","-","194.0 - 196.0","?C","195.0","Celsius"
"CC1=C(O)C=CC(=C1)C(=O)CBr","-","EN300-113735","6264","2-bromo-1-(4-hydroxy-3-methylphenyl)ethan-1-one","-","A55638","25489863","-","-","119.0 - 121.0","?C","120.0","Celsius"
"COC1=C(C=C(Cl)C=C1)N1CC(CC1=O)C(O)=O","63675-21-8","EN300-11374","6265","1-(5-chloro-2-methoxyphenyl)-5-oxopyrrolidine-3-carboxylic acid","-","A55638","25489863","-","-","150.0 - 155.0","?C","152.0","Celsius"
"OC(=O)C1CN(C(=O)C1)C1=C(Cl)C=CC=C1","91349-19-8","EN300-11375","6266","1-(2-chlorophenyl)-5-oxopyrrolidine-3-carboxylic acid","-","A55638","25489863","-","-","141.0 - 143.0","?C","142.0","Celsius"
"COC(=O)C1=CC(CC(O)=O)=CC=C1","-","EN300-113757","6268","2-[3-(methoxycarbonyl)phenyl]acetic acid","-","A55638","25489863","-","-","74.0 - 76.0","?C","75.0","Celsius"
"OC(=O)C1CN(C(=O)C1)C1=C2C=CC=CC2=CC=C1","340319-91-7","EN300-11377","6270","1-(1-naphthyl)-5-oxopyrrolidine-3-carboxylic acid","-","A55638","25489863","-","-","207.0 - 209.0","?C","208.0","Celsius"
"NC1=CC=C(SC2=CC=NC=C2)C=C1","-","EN300-113781","6272","4-(pyridin-4-ylsulfanyl)aniline","-","A55638","25489863","-","-","169.0 - 171.0","?C","170.0","Celsius"
"CC(=O)NCCC(N)=S","-","EN300-113782","6273","N-(2-carbamothioylethyl)acetamide","-","A55638","25489863","-","-","99.0 - 101.0","?C","100.0","Celsius"
"NC(=O)C1=C(N)C=CC(Cl)=N1","-","EN300-113784","6274","3-amino-6-chloropyridine-2-carboxamide","-","A55638","25489863","-","-","164.0 - 166.0","?C","165.0","Celsius"
"CN1C(CO)=NN=C1C1=CC=CC=C1","-","EN300-113785","6275","(4-methyl-5-phenyl-4H-1,2,4-triazol-3-yl)methanol","-","A55638","25489863","-","-","184.0 - 186.0","?C","185.0","Celsius"
"NC1=CC=NN1CC1=NC=CC=C1","-","EN300-11379","6276","1-(pyridin-2-ylmethyl)-1H-pyrazol-5-amine","-","A55638","25489863","-","-","68.0 - 70.0","?C","69.0","Celsius"
"COC(=O)C1=C(F)C=C(Br)C=C1","-","EN300-113790","6277","methyl 4-bromo-2-fluorobenzoate","-","A55638","25489863","-","-","59.0 - 61.0","?C","60.0","Celsius"
"CC1=CC(C=CC(O)=O)=CN=C1","-","EN300-113796","6278","3-(5-methylpyridin-3-yl)prop-2-enoic acid","-","A55638","25489863","-","-","209.0 - 211.0","?C","210.0","Celsius"
"BrCC1(CN2C(=O)C3=C(C=CC=C3)C2=O)CCCC1","-","EN300-113797","6279","2-{[1-(bromomethyl)cyclopentyl]methyl}-2,3-dihydro-1H-isoindole-1,3-dione","-","A55638","25489863","-","-","68.0 - 70.0","?C","69.0","Celsius"
"COC(=O)C1=CN2C(=O)NN=C2C=C1","-","EN300-113812","6281","methyl 3-oxo-2H,3H-[1,2,4]triazolo[4,3-a]pyridine-6-carboxylate","-","A55638","25489863","-","-","225.0 - 227.0","?C","226.0","Celsius"
"CC1=NC(=CC(Cl)=N1)C1=CC=NC=C1","-","EN300-113814","6282","4-chloro-2-methyl-6-(pyridin-4-yl)pyrimidine","-","A55638","25489863","-","-","111.0 - 113.0","?C","112.0","Celsius"
"CC1=CC(N2C=NC(O)=N2)=C(C)C=C1","-","EN300-113889","6290","1-(2,5-dimethylphenyl)-1H-1,2,4-triazol-3-ol","-","A55638","25489863","-","-","166.0 - 168.0","?C","167.0","Celsius"
"CC1(CC(=O)OC1=O)C1=CC=C(Br)C=C1","-","EN300-113891","6291","3-(4-bromophenyl)-3-methyloxolane-2,5-dione","-","A55638","25489863","-","-","69.0 - 71.0","?C","70.0","Celsius"
"OCC1(CCC1)NCC1=CC=CC=C1","-","EN300-113894","6293","[1-(benzylamino)cyclobutyl]methanol","-","A55638","25489863","-","-","51.0 - 53.0","?C","52.0","Celsius"
"CC(O)C1=CC=C(C=C1)N1C=CC=N1","-","EN300-113895","6294","1-[4-(1H-pyrazol-1-yl)phenyl]ethan-1-ol","-","A55638","25489863","-","-","92.0 - 94.0","?C","93.0","Celsius"
"CC(C)C1=CC(=NN1C1=NC=CC=C1)C(O)=O","-","EN300-113896","6295","5-(propan-2-yl)-1-(pyridin-2-yl)-1H-pyrazole-3-carboxylic acid","-","A55638","25489863","-","-","146.0 - 148.0","?C","147.0","Celsius"
"NS(=O)(=O)C1=C(Cl)N=CC(Br)=C1","-","EN300-113898","6296","5-bromo-2-chloropyridine-3-sulfonamide","-","A55638","25489863","-","-","119.0 - 121.0","?C","120.0","Celsius"
"CC1=NC(=CC=C1)C(=O)NC1=CC(O)=CC=C1","-","EN300-113905","6297","N-(3-hydroxyphenyl)-6-methylpyridine-2-carboxamide","-","A55638","25489863","-","-","177.0 - 179.0","?C","178.0","Celsius"
"COC(=O)C1=CC2=CN=CN2C=C1","-","EN300-113912","6299","methyl imidazo[1,5-a]pyridine-7-carboxylate","-","A55638","25489863","-","-","93.0 - 95.0","?C","94.0","Celsius"
"COC1=C(C=CC(NC(C)=O)=C1)C(C)=O","-","EN300-113915","6300","N-(4-acetyl-3-methoxyphenyl)acetamide","-","A55638","25489863","-","-","130.0 - 132.0","?C","131.0","Celsius"
"OCC1(CN2C(=O)C3=C(C=CC=C3)C2=O)CCCC1","-","EN300-113918","6301","2-{[1-(hydroxymethyl)cyclopentyl]methyl}-2,3-dihydro-1H-isoindole-1,3-dione","-","A55638","25489863","-","-","83.0 - 85.0","?C","84.0","Celsius"
"OC1=CC(OC2=CC=NC=C2)=CC=C1","-","EN300-113924","6303","3-(pyridin-4-yloxy)phenol","-","A55638","25489863","-","-","119.0 - 121.0","?C","120.0","Celsius"
"O=C1CC(=NN1C1=CC=C(C=C1)C#N)C1=CC=CC=C1","-","EN300-113927","6304","4-(5-oxo-3-phenyl-4,5-dihydro-1H-pyrazol-1-yl)benzonitrile","-","A55638","25489863","-","-","211.0 - 213.0","?C","212.0","Celsius"
"CC1=C(C)C2=C(S1)N=C(N=C2Cl)C1=CC=C(OC(F)F)C=C1","-","EN300-11394","6306","4-chloro-2-[4-(difluoromethoxy)phenyl]-5,6-dimethylthieno[2,3-d]pyrimidine","-","A55638","25489863","-","-","140.0 - 142.0","?C","141.0","Celsius"
"CC1=C(C2=C(S1)N=C(N=C2Cl)C1=NC=CC=C1)C1=CC=CC=C1","-","EN300-11395","6307","4-chloro-6-methyl-5-phenyl-2-pyridin-2-ylthieno[2,3-d]pyrimidine","-","A55638","25489863","-","-","166.0 - 168.0","?C","167.0","Celsius"
"CC(C)CC1=CSC2=C1C(Cl)=NC(C)=N2","-","EN300-11396","6308","4-chloro-2-methyl-5-(2-methylpropyl)thieno[2,3-d]pyrimidine","-","A55638","25489863","-","-","60.0 - 62.0","?C","61.0","Celsius"
"NC1(CCN(CC2=CC=CC=C2)C1)C(O)=O","-","EN300-113995","6311","3-amino-1-benzylpyrrolidine-3-carboxylic acid","-","A55638","25489863","-","-","216.0 - 218.0","?C","217.0","Celsius"
"CCOC=C(C#N)C(O)=O","-","EN300-113997","6312","2-cyano-3-ethoxyprop-2-enoic acid","-","A55638","25489863","-","-","63.0 - 65.0","?C","64.0","Celsius"
"CCN1CCN(CC1)C1=C(N)C=C(Cl)C=C1","-","EN300-11400","6313","5-chloro-2-(4-ethylpiperazin-1-yl)aniline","-","A55638","25489863","-","-","110.0 - 112.0","?C","111.0","Celsius"
"OC(=O)C1=C2N=CNC2=CC=C1","-","EN300-114001","6314","1H-1,3-benzodiazole-4-carboxylic acid","-","A55638","25489863","-","-","326.0 - 330.0","?C","328.0","Celsius"
"IC1=NNC2=C1SC=C2","-","EN300-114003","6315","3-iodo-1H-thieno[3,2-c]pyrazole","-","A55638","25489863","-","-","174.0 - 176.0","?C","175.0","Celsius"
"CC1=CC(=NC=C1)N1C=C(C=N1)S(Cl)(=O)=O","-","EN300-114010","6316","1-(4-methylpyridin-2-yl)-1H-pyrazole-4-sulfonyl chloride","-","A55638","25489863","-","-","104.0 - 106.0","?C","105.0","Celsius"
"NC1=C2C=CC=CC2=NC(=C1)C(O)=O","-","EN300-114011","6317","4-aminoquinoline-2-carboxylic acid","-","A55638","25489863","-","-","276.0 - 278.0","?C","277.0","Celsius"
"OC1CCS(=O)(=O)C2=C1C=CC=C2","-","EN300-114020","6319","4-hydroxy-3,4-dihydro-2H-1$l^{6}-benzothiopyran-1,1-dione","-","A55638","25489863","-","-","94.0 - 96.0","?C","95.0","Celsius"
"CCOC1=C(C=CC(Cl)=C1)C#N","-","EN300-114021","6320","4-chloro-2-ethoxybenzonitrile","-","A55638","25489863","-","-","81.0 - 83.0","?C","82.0","Celsius"
"ClCC1=NC=C(S1)C1=CC=CC=C1","-","EN300-114022","6321","2-(chloromethyl)-5-phenyl-1,3-thiazole","-","A55638","25489863","-","-","39.0 - 41.0","?C","40.0","Celsius"