"SMILES","CASRN","EXTERNALID","N","NAME","NAME","ARTICLEID","PUBMEDID","PAGE","TABLE","Melting Point {measured}","UNIT {Melting Point}","Melting Point {measured, converted}","UNIT {Melting Point}"
"CCOC(=O)C1=C(C)SC(NCC2=CC=CC=C2)=N1","-","EN300-07273","2520","ethyl 2-(benzylamino)-5-methyl-1,3-thiazole-4-carboxylate","-","A55638","25489863","-","-","98.0 - 100.0","?C","99.0","Celsius"
"CCOC(=O)C1=C(NC(=O)CCl)SC(=C1C)C1=CC=CC=C1","-","EN300-07287","2521","ethyl 2-[(chloroacetyl)amino]-4-methyl-5-phenylthiophene-3-carboxylate","-","A55638","25489863","-","-","106.0 - 108.0","?C","107.0","Celsius"
"CC1=C(C)C=C(NC(N)=S)C=C1","16738-18-4","EN300-07294","2522","N-(3,4-dimethylphenyl)thiourea","-","A55638","25489863","-","-","184.0 - 186.0","?C","185.0","Celsius"
"CC1(NC(=O)NC1=O)C1=CC2=C(OCCO2)C=C1","-","EN300-07298","2523","5-(2,3-dihydro-1,4-benzodioxin-6-yl)-5-methylimidazolidine-2,4-dione","-","A55638","25489863","-","-","180.0 - 182.0","?C","181.0","Celsius"
"CN1C=CN=C1C(=O)C1=C2C=CC=CC2=NC(S)=C1","-","EN300-07301","2524","(2-mercaptoquinolin-4-yl)(1-methyl-1H-imidazol-2-yl)methanone","-","A55638","25489863","-","-","250.0 - 252.0","?C","251.0","Celsius"
"CCOC(=O)CNC1=CC=C(F)C=C1","2521-99-5","EN300-07302","2525","ethyl [(4-fluorophenyl)amino]acetate","-","A55638","25489863","-","-","73.0 - 77.0","?C","75.0","Celsius"
"CC1=NN(CC2=CC=C(C)C=C2)C(C)=C1C=CC(O)=O","-","EN300-07305","2526","(2E)-3-[3,5-dimethyl-1-(4-methylbenzyl)-1H-pyrazol-4-yl]acrylic acid","-","A55638","25489863","-","-","161.0 - 163.0","?C","162.0","Celsius"
"CC1=C(CCl)N=C2C=CC=CC2=N1","5559-53-5","EN300-07306","2527","2-(chloromethyl)-3-methylquinoxaline","-","A55638","25489863","-","-","121.0 - 123.0","?C","122.0","Celsius"
"CCN(CC)S(=O)(=O)C1=CC(N)=C(NC)C=C1","49804-44-6","EN300-07315","2528","3-amino-N,N-diethyl-4-(methylamino)benzenesulfonamide","-","A55638","25489863","-","-","119.0 - 121.0","?C","120.0","Celsius"
"NC1=CC(=C(Cl)C=C1)S(=O)(=O)N1CCCC1","-","EN300-07317","2529","4-chloro-3-(pyrrolidin-1-ylsulfonyl)aniline","-","A55638","25489863","-","-","116.0 - 118.0","?C","117.0","Celsius"
"NC1=C(Cl)N=C(N=C1Cl)C1=CC=CC=C1","20959-02-8","EN300-07320","2530","4,6-dichloro-2-phenylpyrimidin-5-amine","-","A55638","25489863","-","-","140.0 - 142.0","?C","141.0","Celsius"
"CC1=C(NC(=O)CCl)C(C)=NN1","436100-01-5","EN300-07328","2531","2-chloro-N-(3,5-dimethyl-1H-pyrazol-4-yl)acetamide","-","A55638","25489863","-","-","160.0 - 162.0","?C","161.0","Celsius"
"CN(C)C(=O)COC1=CC=C(C=C1)C(C)=O","-","EN300-07329","2532","2-(4-acetylphenoxy)-N,N-dimethylacetamide","-","A55638","25489863","-","-","125.0 - 127.0","?C","126.0","Celsius"
"COC1=C(OC)C=C(C=C1)C1=CSC2=C1C(=O)NC(C)=N2","-","EN300-07333","2533","5-(3,4-dimethoxyphenyl)-2-methylthieno[2,3-d]pyrimidin-4(3H)-one","-","A55638","25489863","-","-","249.0 - 251.0","?C","250.0","Celsius"
"CN1CCN(CC1)C(N)=S","33860-28-5","EN300-07336","2535","4-methylpiperazine-1-carbothioamide","-","A55638","25489863","-","-","179.0 - 181.0","?C","180.0","Celsius"
"CN1C=CN=C1SCC(=O)NC1=C(Cl)C=CC(=C1)C(O)=O","-","EN300-07341","2536","4-chloro-3-({[(1-methyl-1H-imidazol-2-yl)thio]acetyl}amino)benzoic acid","-","A55638","25489863","-","-","223.0 - 225.0","?C","224.0","Celsius"
"CN1C=CN=C1SCC(=O)NC1=C(C=CC=C1)C(O)=O","-","EN300-07342","2537","2-({[(1-methyl-1H-imidazol-2-yl)thio]acetyl}amino)benzoic acid","-","A55638","25489863","-","-","203.0 - 205.0","?C","204.0","Celsius"
"OC(=O)CN1C=CC(=N1)C(F)(F)F","-","EN300-07344","2538","[3-(trifluoromethyl)-1H-pyrazol-1-yl]acetic acid","-","A55638","25489863","-","-","58.0 - 64.0","?C","61.0","Celsius"
"CC1=NC(=C(CC(O)=O)S1)C1=CC=CS1","-","EN300-07347","2539","(2-methyl-4-thien-2-yl-1,3-thiazol-5-yl)acetic acid","-","A55638","25489863","-","-","159.0 - 161.0","?C","160.0","Celsius"
"FC1=C(C=O)C(=CC=C1)N1CCCC1","-","EN300-07353","2540","2-fluoro-6-pyrrolidin-1-ylbenzaldehyde","-","A55638","25489863","-","-","41.0 - 43.0","?C","42.0","Celsius"
"CC1=CC(C(=O)CCl)=C(C)N1CC1=CC=CC=C1","-","EN300-07356","2541","1-(1-benzyl-2,5-dimethyl-1H-pyrrol-3-yl)-2-chloroethanone","-","A55638","25489863","-","-","64.0 - 68.0","?C","66.0","Celsius"
"OC(=O)CN1C=CSC1=N","23576-80-9","EN300-07365","2542","(2-imino-1,3-thiazol-3(2H)-yl)acetic acid","-","A55638","25489863","-","-","243.0 - 247.0","?C","245.0","Celsius"
"CC1=CC=C(C)N1C1=CC=C(C=C1)C(O)=O","15898-26-7","EN300-07368","2543","4-(2,5-dimethyl-1H-pyrrol-1-yl)benzoic acid","-","A55638","25489863","-","-","213.0 - 215.0","?C","214.0","Celsius"
"COCCNC1=NN=C(S)S1","-","EN300-07370","2544","5-[(2-methoxyethyl)amino]-1,3,4-thiadiazole-2-thiol","-","A55638","25489863","-","-","120.0 - 122.0","?C","121.0","Celsius"
"CCOC1=CC=C(C=C1)C(N)=S","57774-79-5","EN300-07372","2545","4-ethoxybenzenecarbothioamide","-","A55638","25489863","-","-","115.0 - 117.0","?C","116.0","Celsius"
"OC(=O)CNS(=O)(=O)C1=C(Br)C=C(F)C=C1F","-","EN300-07373","2546","{[(2-bromo-4,6-difluorophenyl)sulfonyl]amino}acetic acid","-","A55638","25489863","-","-","136.0 - 138.0","?C","137.0","Celsius"
"COC1=C(OC)C=C(C=C1)C1=NC2=C(C=CC=C2)C(=C1)C(=O)NN","-","EN300-07379","2547","2-(3,4-dimethoxyphenyl)quinoline-4-carbohydrazide","-","A55638","25489863","-","-","181.0 - 183.0","?C","182.0","Celsius"
"NCC(C1=CC=CS1)C1=CNC2=C1C=CC=C2","51626-50-7","EN300-07385","2548","2-(1H-indol-3-yl)-2-thien-2-ylethanamine","-","A55638","25489863","-","-","145.0 - 147.0","?C","146.0","Celsius"
"CCOC(=O)C1=C(C)C2=C(S1)N=C(CSC1=CC=CC=C1)N=C2Cl","-","EN300-07389","2549","ethyl 4-chloro-5-methyl-2-[(phenylthio)methyl]thieno[2,3-d]pyrimidine-6-carboxylate","-","A55638","25489863","-","-","52.0 - 54.0","?C","53.0","Celsius"
"ClC1=C2C3=C(CCCC3)SC2=NC(CSC2=CC=CC=C2)=N1","128277-14-5","EN300-07392","2550","4-chloro-2-[(phenylthio)methyl]-5,6,7,8-tetrahydro[1]benzothieno[2,3-d]pyrimidine","-","A55638","25489863","-","-","55.0 - 57.0","?C","56.0","Celsius"
"CC1CCC2=C(C1)SC1=C2C(Cl)=NC=N1","137438-23-4","EN300-07402","2551","4-chloro-7-methyl-5,6,7,8-tetrahydro[1]benzothieno[2,3-d]pyrimidine","-","A55638","25489863","-","-","119.0 - 121.0","?C","120.0","Celsius"
"COC1=CC=C(C=C1)C1=CSC2=C1C(Cl)=NC=N2","-","EN300-07406","2554","4-chloro-5-(4-methoxyphenyl)thieno[2,3-d]pyrimidine","-","A55638","25489863","-","-","163.0 - 167.0","?C","165.0","Celsius"
"CC1=C(C)C2=C(S1)N=C(CN1CCOCC1)N=C2Cl","-","EN300-07407","2555","4-chloro-5,6-dimethyl-2-(morpholin-4-ylmethyl)thieno[2,3-d]pyrimidine","-","A55638","25489863","-","-","102.0 - 104.0","?C","103.0","Celsius"
"CC1CCC2=C(C1)SC1=C2C(Cl)=NC(CN2CCOCC2)=N1","-","EN300-07409","2556","4-chloro-7-methyl-2-(morpholin-4-ylmethyl)-5,6,7,8-tetrahydro[1]benzothieno[2,3-d]pyrimidine","-","A55638","25489863","-","-","55.0 - 57.0","?C","56.0","Celsius"
"ClC1=C2C(SC=C2C2=CC=CC=C2)=NC(CN2CCOCC2)=N1","-","EN300-07410","2557","4-chloro-2-(morpholin-4-ylmethyl)-5-phenylthieno[2,3-d]pyrimidine","-","A55638","25489863","-","-","82.0 - 84.0","?C","83.0","Celsius"
"ClC1=C2C3=C(CCCC3)SC2=NC(=N1)C1=CN=CC=C1","128277-24-7","EN300-07412","2559","4-chloro-2-pyridin-3-yl-5,6,7,8-tetrahydro[1]benzothieno[2,3-d]pyrimidine","-","A55638","25489863","-","-","137.0 - 139.0","?C","138.0","Celsius"
"CCOC(=O)C1=C(C)C2=C(S1)N=C(C)N=C2Cl","-","EN300-07414","2560","ethyl 4-chloro-2,5-dimethylthieno[2,3-d]pyrimidine-6-carboxylate","-","A55638","25489863","-","-","145.0 - 147.0","?C","146.0","Celsius"
"CCOC(=O)C1=C(C)C2=C(S1)N=C(CCl)N=C2Cl","-","EN300-07415","2561","ethyl 4-chloro-2-(chloromethyl)-5-methylthieno[2,3-d]pyrimidine-6-carboxylate","-","A55638","25489863","-","-","168.0 - 170.0","?C","169.0","Celsius"
"ClC1=C2C(SC=C2C2=CC=CC=C2)=NC(=N1)C1=CN=CC=C1","-","EN300-07417","2562","4-chloro-5-phenyl-2-pyridin-3-ylthieno[2,3-d]pyrimidine","-","A55638","25489863","-","-","155.0 - 157.0","?C","156.0","Celsius"
"CC1=C(C2=C(S1)N=C(C)N=C2Cl)C1=CC=CC=C1","-","EN300-07418","2563","4-chloro-2,6-dimethyl-5-phenylthieno[2,3-d]pyrimidine","-","A55638","25489863","-","-","60.0 - 62.0","?C","61.0","Celsius"
"CC1=C(C)C2=C(S1)N=C(CN1CCCCC1)N=C2Cl","-","EN300-07419","2564","4-chloro-5,6-dimethyl-2-(piperidin-1-ylmethyl)thieno[2,3-d]pyrimidine","-","A55638","25489863","-","-","61.0 - 63.0","?C","62.0","Celsius"
"ClC1=C2C(SC3=C2CCCC3)=NC(CN2CCCCC2)=N1","-","EN300-07420","2565","4-chloro-2-(piperidin-1-ylmethyl)-5,6,7,8-tetrahydro[1]benzothieno[2,3-d]pyrimidine","-","A55638","25489863","-","-","51.0 - 53.0","?C","52.0","Celsius"
"ClC1=C2C3=C(CCC3)SC2=NC(CN2CCCCC2)=N1","-","EN300-07421","2566","4-chloro-2-(piperidin-1-ylmethyl)-6,7-dihydro-5H-cyclopenta[4,5]thieno[2,3-d]pyrimidine","-","A55638","25489863","-","-","75.0 - 77.0","?C","76.0","Celsius"
"ClC1=C2C(SC=C2C2=CC=CC=C2)=NC(CN2CCCCC2)=N1","-","EN300-07422","2567","4-chloro-5-phenyl-2-(piperidin-1-ylmethyl)thieno[2,3-d]pyrimidine","-","A55638","25489863","-","-","79.0 - 81.0","?C","80.0","Celsius"
"COC(=O)C1=C(C)C2=C(S1)N=C(C)N=C2Cl","-","EN300-07423","2568","methyl 4-chloro-2,5-dimethylthieno[2,3-d]pyrimidine-6-carboxylate","-","A55638","25489863","-","-","149.0 - 151.0","?C","150.0","Celsius"
"CC1=C(C2=C(S1)N=C(N=C2Cl)C1=CN=CC=C1)C1=CC=CC=C1","-","EN300-07425","2569","4-chloro-6-methyl-5-phenyl-2-pyridin-3-ylthieno[2,3-d]pyrimidine","-","A55638","25489863","-","-","144.0 - 146.0","?C","145.0","Celsius"
"ClC1=C2C3=C(CCC3)SC2=NC(=N1)C1=CN=CC=C1","-","EN300-07427","2570","4-chloro-2-pyridin-3-yl-6,7-dihydro-5H-cyclopenta[4,5]thieno[2,3-d]pyrimidine","-","A55638","25489863","-","-","145.0 - 147.0","?C","146.0","Celsius"
"CC1=NC2=C(C(=CS2)C2=CC=CC=C2)C(Cl)=N1","83548-61-2","EN300-07428","2571","4-chloro-2-methyl-5-phenylthieno[2,3-d]pyrimidine","-","A55638","25489863","-","-","169.0 - 173.0","?C","171.0","Celsius"
"CCOC(=O)C1=C(C)C2=C(S1)N=C(CN(C)C)N=C2Cl","-","EN300-07429","2572","ethyl 4-chloro-2-[(dimethylamino)methyl]-5-methylthieno[2,3-d]pyrimidine-6-carboxylate","-","A55638","25489863","-","-","114.0 - 116.0","?C","115.0","Celsius"
"CCOC(=O)C1=C(C)C2=C(S1)N=C(CN1CCCCC1)N=C2Cl","-","EN300-07432","2573","ethyl 4-chloro-5-methyl-2-(piperidin-1-ylmethyl)thieno[2,3-d]pyrimidine-6-carboxylate","-","A55638","25489863","-","-","105.0 - 107.0","?C","106.0","Celsius"
"ClC1=C2C(SC=C2C2=CC=CS2)=NC(CN2CCOCC2)=N1","-","EN300-07433","2574","4-chloro-2-(morpholin-4-ylmethyl)-5-thien-2-ylthieno[2,3-d]pyrimidine","-","A55638","25489863","-","-","105.0 - 107.0","?C","106.0","Celsius"
"CNS(=O)(=O)C1=CC=C(C=C1)C(C)=O","68793-19-1","EN300-07455","2575","4-acetyl-N-methylbenzenesulfonamide","-","A55638","25489863","-","-","109.0 - 111.0","?C","110.0","Celsius"
"FC1=C(C=CC=C1)S(=O)(=O)NCC=C","-","EN300-07466","2576","N-allyl-2-fluorobenzenesulfonamide","-","A55638","25489863","-","-","100.0 - 102.0","?C","101.0","Celsius"
"NC1=CC(=CNC1=O)C(F)(F)F","-","EN300-07507","2578","3-amino-5-(trifluoromethyl)pyridin-2(1H)-one","-","A55638","25489863","-","-","96.0 - 98.0","?C","97.0","Celsius"
"COC1=CC=C(C=C1)C(=O)NC1=CC(C=O)=CC=C1","-","EN300-07508","2579","N-(3-formylphenyl)-4-methoxybenzamide","-","A55638","25489863","-","-","128.0 - 130.0","?C","129.0","Celsius"
"CC1=NN(C(=O)C1)C1=CC=C(F)C=C1","-","EN300-07509","2580","2-(4-fluorophenyl)-5-methyl-2,4-dihydro-3H-pyrazol-3-one","-","A55638","25489863","-","-","148.0 - 150.0","?C","149.0","Celsius"
"CC1=CC=C(C=C1)N1C(=O)CSC1=S","3919-81-1","EN300-07510","2581","3-(4-methylphenyl)-2-thioxo-1,3-thiazolidin-4-one","-","A55638","25489863","-","-","168.0 - 170.0","?C","169.0","Celsius"
"OC1=CC=C(NC(=O)C2=CC=CS2)C=C1","98902-53-5","EN300-07511","2582","N-(4-hydroxyphenyl)thiophene-2-carboxamide","-","A55638","25489863","-","-","166.0 - 168.0","?C","167.0","Celsius"
"CC1=NN=C(S)N1CC=C","-","EN300-07513","2583","4-allyl-5-methyl-4H-1,2,4-triazole-3-thiol","-","A55638","25489863","-","-","264.0 - 266.0","?C","265.0","Celsius"
"CC(Cl)C(=O)NC1=C2C=CC=CC2=CC=C1","22302-58-5","EN300-07520","2585","2-chloro-N-1-naphthylpropanamide","-","A55638","25489863","-","-","146.0 - 148.0","?C","147.0","Celsius"
"OC(=O)C1=C(NC(=O)C2=CC=CC=C2)C=CC=C1","579-93-1","EN300-07527","2586","2-(Benzoylamino)benzoic acid","-","A55638","25489863","-","-","178.0 - 182.0","?C","180.0","Celsius"
"OC(=O)C1CC2=C(CN1S(=O)(=O)C1=CC=CC=C1)C=CC=C2","-","EN300-07528","2587","2-(phenylsulfonyl)-1,2,3,4-tetrahydroisoquinoline-3-carboxylic acid","-","A55638","25489863","-","-","138.0 - 140.0","?C","139.0","Celsius"
"CC(C)CN1C(S)=NC2=C(C=CC(Cl)=C2)C1=O","-","EN300-07529","2588","7-chloro-3-isobutyl-2-mercaptoquinazolin-4(3H)-one","-","A55638","25489863","-","-","221.0 - 223.0","?C","222.0","Celsius"
"CC1=C(C=CC=C1)N1C(S)=NC2=C(C(=CS2)C2=CC=CC=C2)C1=O","-","EN300-07538","2589","2-mercapto-3-(2-methylphenyl)-5-phenylthieno[2,3-d]pyrimidin-4(3H)-one","-","A55638","25489863","-","-","157.0 - 159.0","?C","158.0","Celsius"
"CCN(CC)S(=O)(=O)C1=CC(N)=C(C=C1)N1CCN(C)CC1","-","EN300-07552","2590","3-amino-N,N-diethyl-4-(4-methylpiperazin-1-yl)benzenesulfonamide","-","A55638","25489863","-","-","148.0 - 152.0","?C","150.0","Celsius"
"OC1=C(C=O)C=C2C=CC=CC2=N1","91301-03-0","EN300-07553","2591","2-hydroxyquinoline-3-carbaldehyde","-","A55638","25489863","-","-","308.0 - 310.0","?C","309.0","Celsius"
"CCOC(=O)C1=C(C)C2=C(S1)N=C(CC1=NC=CC=C1)NC2=O","-","EN300-07559","2592","ethyl 5-methyl-4-oxo-2-(pyridin-2-ylmethyl)-3,4-dihydrothieno[2,3-d]pyrimidine-6-carboxylate","-","A55638","25489863","-","-","231.0 - 233.0","?C","232.0","Celsius"
"COCCN1C=NN=C1S","76457-78-8","EN300-07571","2597","4-(2-methoxyethyl)-4H-1,2,4-triazole-3-thiol","-","A55638","25489863","-","-","79.0 - 81.0","?C","80.0","Celsius"
"COCCCN1C=NN=C1S","-","EN300-07574","2598","4-(3-methoxypropyl)-4H-1,2,4-triazole-3-thiol","-","A55638","25489863","-","-","161.0 - 163.0","?C","162.0","Celsius"
"SC1=NC(=C(N1CC1=CC=CC=C1)C1=CC=CC=C1)C1=CC=CC=C1","15061-34-4","EN300-07576","2599","1-benzyl-4,5-diphenyl-1H-imidazole-2-thiol","-","A55638","25489863","-","-","280.0 - 282.0","?C","281.0","Celsius"
"OC(=O)C(CC1=CC=CC=C1)NC(=O)C1=CC=C(Cl)C=C1","59490-33-4","EN300-07584","2600","2-[(4-chlorobenzoyl)amino]-3-phenylpropanoic acid","-","A55638","25489863","-","-","195.0 - 197.0","?C","196.0","Celsius"
"SC1=NC2=C(N1)N=CC(Br)=C2","93752-20-6","EN300-07586","2601","6-bromo-1,3-dihydro-2H-imidazo[4,5-b]pyridine-2-thione","-","A55638","25489863","-","-","324.0 - 326.0","?C","325.0","Celsius"
"CCOC1=C(O)C(Cl)=CC(C=O)=C1","70842-33-0","EN300-07587","2602","3-chloro-5-ethoxy-4-hydroxybenzaldehyde","-","A55638","25489863","-","-","145.0 - 147.0","?C","146.0","Celsius"
"CN(C)C1=CC=C(S1)C=O","24372-46-1","EN300-07591","2603","5-(dimethylamino)thiophene-2-carbaldehyde","-","A55638","25489863","-","-","65.0 - 67.0","?C","66.0","Celsius"
"OC(=O)CSC1=NN=C(NC2CCCCC2)S1","68161-57-9","EN300-07598","2604","{[5-(cyclohexylamino)-1,3,4-thiadiazol-2-yl]thio}acetic acid","-","A55638","25489863","-","-","157.0 - 159.0","?C","158.0","Celsius"
"CC1=CC(=CC=C1)N1N=C(CCC1=O)C(O)=O","-","EN300-07599","2605","1-(3-methylphenyl)-6-oxo-1,4,5,6-tetrahydropyridazine-3-carboxylic acid","-","A55638","25489863","-","-","152.0 - 154.0","?C","153.0","Celsius"
"CCOC1=C(OCC(=O)N2CCCCC2)C=CC(=C1)C(O)=O","-","EN300-07602","2606","3-ethoxy-4-(2-oxo-2-piperidin-1-ylethoxy)benzoic acid","-","A55638","25489863","-","-","129.0 - 131.0","?C","130.0","Celsius"
"CCCN1C(=O)N(C)C(=O)C2=C1N=C(N=C2S)C(C)(C)C","-","EN300-07604","2608","7-tert-butyl-5-mercapto-3-methyl-1-propylpyrimido[4,5-d]pyrimidine-2,4(1H,3H)-dione","-","A55638","25489863","-","-","134.0 - 136.0","?C","135.0","Celsius"
"CCCN1C(=O)N(C)C(=O)C2=C1N=C(CC(C)C)N=C2S","-","EN300-07605","2609","7-isobutyl-5-mercapto-3-methyl-1-propylpyrimido[4,5-d]pyrimidine-2,4(1H,3H)-dione","-","A55638","25489863","-","-","184.0 - 186.0","?C","185.0","Celsius"
"CCCCCCC1=NC2=C(C(S)=N1)C(=O)N(C)C(=O)N2CCC","-","EN300-07606","2610","7-hexyl-5-mercapto-3-methyl-1-propylpyrimido[4,5-d]pyrimidine-2,4(1H,3H)-dione","-","A55638","25489863","-","-","172.0 - 174.0","?C","173.0","Celsius"
"CC(C)CN1C(=O)N(C)C(=O)C2=C1N=C(CC(C)(C)C)N=C2S","-","EN300-07607","2611","1-isobutyl-5-mercapto-3-methyl-7-neopentylpyrimido[4,5-d]pyrimidine-2,4(1H,3H)-dione","-","A55638","25489863","-","-","189.0 - 191.0","?C","190.0","Celsius"
"CC(C)CN1C(=O)N(C)C(=O)C2=C1N=C(C)N=C2S","-","EN300-07608","2612","1-isobutyl-5-mercapto-3,7-dimethylpyrimido[4,5-d]pyrimidine-2,4(1H,3H)-dione","-","A55638","25489863","-","-","172.0 - 174.0","?C","173.0","Celsius"
"CCCN1C(=O)N(C)C(=O)C2=C1N=C(N=C2S)C(C)C","-","EN300-07609","2613","7-isopropyl-5-mercapto-3-methyl-1-propylpyrimido[4,5-d]pyrimidine-2,4(1H,3H)-dione","-","A55638","25489863","-","-","204.0 - 206.0","?C","205.0","Celsius"
"OC(=O)C=CC1=C(Cl)C(Cl)=CC=C1","20595-44-2","EN300-07610","2614","(2E)-3-(2,3-dichlorophenyl)acrylic acid","-","A55638","25489863","-","-","233.0 - 235.0","?C","234.0","Celsius"
"CCC1=C(C)C=C(S1)C(O)=O","-","EN300-07617","2615","5-ethyl-4-methylthiophene-2-carboxylic acid","-","A55638","25489863","-","-","98.0 - 100.0","?C","99.0","Celsius"
"OC(=O)C1=C(SCC(=O)N2CCC3=C2C=CC=C3)C=CC=C1","-","EN300-07627","2616","2-{[2-(2,3-dihydro-1H-indol-1-yl)-2-oxoethyl]thio}benzoic acid","-","A55638","25489863","-","-","152.0 - 154.0","?C","153.0","Celsius"
"CC(C)N1C=NN=C1S","-","EN300-07628","2617","4-isopropyl-4H-1,2,4-triazole-3-thiol","-","A55638","25489863","-","-","116.0 - 118.0","?C","117.0","Celsius"
"ClC1=CC=C(C=C1)C1=C(C(=O)OC1)C1=CC=CS1","-","EN300-07631","2618","4-(4-chlorophenyl)-3-thien-2-ylfuran-2(5H)-one","-","A55638","25489863","-","-","65.0 - 67.0","?C","66.0","Celsius"
"OC(=O)C1=C2C=C(Br)C=CC2=NC2=C1CCCC2","37509-14-1","EN300-07634","2619","7-bromo-1,2,3,4-tetrahydroacridine-9-carboxylic acid","-","A55638","25489863","-","-","291.0 - 293.0","?C","292.0","Celsius"
"ClCC(=O)N=C1SC=CN1CC1=C(Cl)C=CC=C1","-","EN300-07635","2620","2-chloro-N-[(2Z)-3-(2-chlorobenzyl)-1,3-thiazol-2(3H)-ylidene]acetamide","-","A55638","25489863","-","-","82.0 - 84.0","?C","83.0","Celsius"
"OC(=O)C(=CC1=CC=CC=C1)C1=CC=C(Cl)C=C1","-","EN300-07636","2621","(2Z)-2-(4-chlorophenyl)-3-phenylacrylic acid","-","A55638","25489863","-","-","179.0 - 183.0","?C","181.0","Celsius"
"COC1=CC2=C(C=C1)C(C)=CC(NN)=N2","97892-65-4","EN300-07640","2623","2-hydrazino-7-methoxy-4-methylquinoline","-","A55638","25489863","-","-","250.0 - 252.0","?C","251.0","Celsius"
"ClCC(=O)N=C1SC=CN1CC1=C(Cl)C=C(Cl)C=C1","-","EN300-07644","2625","2-chloro-N-[(2Z)-3-(2,4-dichlorobenzyl)-1,3-thiazol-2(3H)-ylidene]acetamide","-","A55638","25489863","-","-","128.0 - 130.0","?C","129.0","Celsius"
"CC1=NN(CC(=O)NN)C(C)=C1","64019-58-5","EN300-07651","2626","2-(3,5-dimethyl-1H-pyrazol-1-yl)acetohydrazide","-","A55638","25489863","-","-","102.0 - 104.0","?C","103.0","Celsius"
"NNC(=O)C1=CC(=CC(N)=C1)[N+]([O-])=O","-","EN300-07653","2627","3-amino-5-nitrobenzohydrazide","-","A55638","25489863","-","-","227.0 - 229.0","?C","228.0","Celsius"
"CC1=NN=C(N)O1","52838-39-8","EN300-07654","2628","5-methyl-1,3,4-oxadiazol-2-amine","-","A55638","25489863","-","-","183.0 - 185.0","?C","184.0","Celsius"
"COC1=C(OCC(=O)N(C)C)C(Br)=CC(C=O)=C1","-","EN300-07659","2631","2-(2-bromo-4-formyl-6-methoxyphenoxy)-N,N-dimethylacetamide","-","A55638","25489863","-","-","62.0 - 64.0","?C","63.0","Celsius"
"ON1N=NC2=C1C=CC(=C2)S(=O)(=O)NCC(O)=O","-","EN300-07660","2632","{[(1-hydroxy-1H-1,2,3-benzotriazol-5-yl)sulfonyl]amino}acetic acid","-","A55638","25489863","-","-","229.0 - 231.0","?C","230.0","Celsius"
"CCN(CC)C1=NC2=C(NC1=O)C=CC=C2","-","EN300-07661","2633","3-(diethylamino)quinoxalin-2(1H)-one","-","A55638","25489863","-","-","151.0 - 153.0","?C","152.0","Celsius"
"OC(=O)C1=NN(C2CCS(=O)(=O)C2)C(=O)CC1","732291-88-2","EN300-07663","2634","1-(1,1-dioxidotetrahydrothien-3-yl)-6-oxo-1,4,5,6-tetrahydropyridazine-3-carboxylic acid","-","A55638","25489863","-","-","138.0 - 140.0","?C","139.0","Celsius"
"COC1=CC=C(C=NOCC(O)=O)C=C1","-","EN300-07668","2636","({[(1E)-(4-methoxyphenyl)methylene]amino}oxy)acetic acid","-","A55638","25489863","-","-","101.0 - 103.0","?C","102.0","Celsius"
"CCOCCCNC(=O)CCl","-","EN300-07669","2637","2-chloro-N-(3-ethoxypropyl)acetamide","-","A55638","25489863","-","-","25.0 - 27.0","?C","26.0","Celsius"