{"entries":[{"connectivityMatrix":[[6,1,0,0,0],[1,6,1,0,1],[0,1,6,1,0],[0,0,1,7,0],[0,1,0,0,8]],"canonicSmiles":"CC(CN)O","targets":{"experimental":350.15},"predictedProperties":{"logP":-0.9147000312805176,"logS":-0.42399997636675835},"topologicalProperties":{"nbHBondAcceptors":2,"nbHBondDonors":2,"polarSurfaceArea":46.25,"nbRotatableBonds":1,"nbStereoCenters":1,"mass":75.1097826124718,"monoisotopicMass":75.06841391406999,"charge":0,"mf":"C3H9NO","atoms":{"C":3,"H":9,"N":1,"O":1},"unsaturation":0},"fingerprints":{"ocl":[1,0,0,0,0,0,0,0,0,1,1,0,0,0,0,1,0,0,0,1,0,1,0,1,0,0,1,0,1,1,1,1,0,0,0,0,0,0,0,0,0,0,0,0,0,0,0,0,0,1,0,0,0,1,0,0,0,0,0,0,1,0,1,0,0,0,0,0,0,0,0,0,0,0,0,0,0,0,1,0,0,0,0,0,0,0,0,0,0,0,0,0,0,0,0,0,0,0,0,0,0,0,0,0,0,0,0,0,0,0,0,0,0,0,0,0,0,0,0,0,0,0,0,0,0,0,0,0,0,0,0,0,0,0,0,0,0,0,0,0,0,0,0,0,0,0,0,0,0,0,0,0,0,0,0,0,0,0,1,0,0,0,0,0,0,0,0,0,0,0,0,1,0,0,0,0,0,0,0,0,0,0,0,0,0,0,0,0,0,0,0,0,0,0,0,0,0,0,0,0,0,0,0,0,0,0,0,0,0,0,0,0,1,0,0,0,0,0,0,0,0,0,0,0,0,0,0,0,0,0,0,0,0,0,0,0,0,0,0,0,0,0,0,0,0,0,0,0,0,0,0,0,0,0,0,0,0,0,0,0,0,0,0,0,0,0,0,0,0,1,0,0,0,0,0,0,0,0,0,0,0,0,0,0,0,0,0,0,0,0,0,0,0,0,0,0,0,0,0,0,0,0,0,0,0,0,0,0,0,0,0,0,0,0,0,0,0,0,0,0,0,0,0,0,0,0,0,0,0,0,0,0,0,0,0,0,0,0,0,0,0,0,0,0,0,0,0,0,0,0,0,0,0,0,0,0,0,0,0,0,0,0,0,0,0,0,0,0,0,0,0,0,0,0,0,0,0,0,0,0,0,0,0,0,0,0,0,0,0,0,0,0,0,0,0,0,0,0,0,0,0,0,0,0,0,0,0,0,0,0,0,0,0,0,0,0,0,0,0,0,0,0,0,0,0,0,0,0,0,0,0,0,0,0,0,0,0,0,0,0,0,0,0,0,0,0,0,0,0,0,0,0,0,0,0,0,0,0,0,1,0,0,0,0,0,0,0,0,0,0,0,0,0,0,0,0,0,0,0,0,0,0,1,0,0,0,0,1,0,0,0,0,0,0,0,1,0,0,0,0,1,0,0,0,0,0,0,0,0,0,0,0],"sphere1":[1],"sphere2":[1],"atoms":[1,3,9,1]},"atomFeatures":{"sphere1":{"eF@HpP":1,"gCa@@duPD":1,"eM`AIhH":1,"eF`BLD":1,"eFHBLD":1},"sphere2":{"gCa@@duPD":2,"gJY@BDfZh@":2,"eM`AIhH":1}}},{"connectivityMatrix":[[6,4,0,0,0,4,0,0,0,0,0,0,0],[4,6,4,0,0,0,0,0,0,0,0,0,0],[0,4,6,4,0,0,0,0,0,0,0,0,1],[0,0,4,6,4,0,0,0,0,1,0,0,0],[0,0,0,4,6,4,0,0,0,0,0,0,0],[4,0,0,0,4,6,1,0,0,0,0,0,0],[0,0,0,0,0,1,7,2,1,0,0,0,0],[0,0,0,0,0,0,2,8,0,0,0,0,0],[0,0,0,0,0,0,1,0,8,0,0,0,0],[0,0,0,1,0,0,0,0,0,7,2,1,0],[0,0,0,0,0,0,0,0,0,2,8,0,0],[0,0,0,0,0,0,0,0,0,1,0,8,0],[0,0,1,0,0,0,0,0,0,0,0,0,17]],"canonicSmiles":"C1(=CC(=C(C=C1[N+](=O)[O-])[N+](=O)[O-])Cl)","targets":{"experimental":467.15},"predictedProperties":{"logP":0.42240000516176224,"logS":-3.2719998992979527},"topologicalProperties":{"nbHBondAcceptors":6,"nbHBondDonors":0,"polarSurfaceArea":91.63999938964844,"nbRotatableBonds":2,"nbStereoCenters":0,"mass":202.55220134535153,"monoisotopicMass":201.97813426583002,"charge":0,"mf":"C6H3ClN2O4","atoms":{"C":6,"H":3,"Cl":1,"N":2,"O":4},"unsaturation":6},"fingerprints":{"ocl":[0,0,0,1,0,0,0,0,0,0,0,0,1,0,0,1,0,1,1,0,0,0,0,0,1,0,0,1,1,0,0,1,0,0,0,0,0,0,0,0,0,0,0,0,0,0,0,0,1,0,0,0,0,0,0,0,0,1,0,0,0,0,0,0,0,0,1,0,0,0,0,1,0,0,0,0,0,0,0,0,0,0,0,0,0,0,0,0,0,0,0,0,1,0,0,0,1,0,0,0,0,0,0,0,1,0,0,0,0,0,0,0,0,0,0,0,0,0,0,1,1,0,0,0,0,0,1,0,0,0,0,0,0,0,0,0,0,0,0,0,0,0,0,0,0,1,0,0,1,1,0,0,0,0,0,0,0,0,0,1,0,0,0,0,0,0,0,1,0,0,0,0,0,0,0,0,0,0,0,0,0,0,0,0,0,0,0,0,0,0,0,0,0,0,1,0,0,0,0,0,0,0,0,0,0,1,0,1,0,0,1,0,0,0,0,0,0,0,0,0,0,0,0,0,0,0,0,0,0,0,0,0,0,0,0,1,0,0,0,0,0,0,0,0,0,0,0,0,0,0,0,1,0,0,0,0,0,0,0,0,0,0,0,0,0,0,0,1,0,0,0,1,0,0,0,1,0,0,0,0,0,0,0,1,0,0,0,0,0,0,0,0,1,0,0,0,0,0,0,0,0,1,0,0,0,0,0,0,0,1,0,0,0,0,0,0,0,0,0,0,0,0,0,0,0,0,0,0,0,0,0,0,0,0,0,0,0,0,0,0,0,0,1,0,0,0,0,0,0,1,0,0,0,0,0,0,0,0,1,0,0,0,0,0,0,1,0,1,0,0,0,0,0,0,0,0,0,0,0,0,0,0,0,0,0,1,0,1,0,0,0,0,0,0,0,0,0,0,0,0,0,0,0,0,1,1,0,0,0,0,0,0,0,0,0,1,0,0,0,0,0,0,0,0,0,0,0,0,0,1,0,0,0,0,1,0,0,0,0,0,0,0,0,0,0,0,1,0,0,0,1,0,0,0,0,0,0,0,0,0,0,0,0,0,0,0,0,0,0,0,0,0,0,0,0,0,0,0,0,0,0,0,0,0,0,0,0,0,0,0,0,0,0,0,1,1,0,0,0,0,0,0,0,0,0,0,0,0,0,0,0,0],"sphere1":[1],"sphere2":[1],"atoms":[2,6,3,4]},"atomFeatures":{"sphere1":{"eM@HpB":3,"gC`HADIM@A@":1,"gCh@@dt@D":2,"gCh`hEIWILtA@":2,"eFhHba@":2,"eFhXNicA@":2,"eFBBHcA@":1},"sphere2":{"gGX@@dsp@A@":1,"gGPHADIL|@@P":1,"gNxHBHaIfXH@H":1,"diFDaB[`bBgnRYnXHX@H":1,"gNt@ATf^`H@`":1,"dazDAHAHeNR[eZ@@B":1,"gGX`hEIWIMsP@P":2,"gCh`hEIWILtA@":4,"gC`HADIM@A@":1}}},{"connectivityMatrix":[[6,1,0,1],[1,6,1,0],[0,1,17,0],[1,0,0,17]],"canonicSmiles":"C(CCl)Cl","targets":{"experimental":286.15},"predictedProperties":{"logP":1.4357999861240387,"logS":-1.785999983549118},"topologicalProperties":{"nbHBondAcceptors":0,"nbHBondDonors":0,"polarSurfaceArea":0,"nbRotatableBonds":1,"nbStereoCenters":0,"mass":98.95910997490961,"monoisotopicMass":97.96900549291999,"charge":0,"mf":"C2H4Cl2","atoms":{"C":2,"H":4,"Cl":2},"unsaturation":0},"fingerprints":{"ocl":[0,0,0,0,0,0,0,0,0,0,0,0,0,0,0,0,0,0,0,0,0,0,0,0,0,0,1,0,0,1,1,1,0,0,0,0,0,0,0,0,0,0,0,0,0,0,0,0,0,0,0,0,0,0,0,0,0,0,0,0,0,0,0,0,0,0,0,0,0,0,0,0,0,0,0,0,0,0,0,0,0,0,0,0,0,0,0,0,0,0,0,0,0,0,0,0,0,0,0,0,0,0,0,0,0,0,0,0,0,0,0,0,0,0,0,0,0,0,0,0,0,0,0,0,0,0,0,0,0,0,0,0,0,0,0,0,0,0,0,0,0,0,0,0,0,0,0,0,0,0,0,0,0,0,0,0,0,0,0,0,0,0,0,0,0,0,0,1,0,0,0,0,0,0,0,0,0,0,0,0,0,0,0,0,0,0,0,0,0,0,0,0,0,0,0,0,0,0,0,0,0,0,0,0,0,0,0,0,0,0,0,0,0,0,0,0,0,0,0,0,0,0,0,0,0,0,0,0,0,0,0,0,0,0,0,0,0,0,0,0,0,0,0,0,0,0,0,0,0,0,0,0,0,0,0,0,0,0,0,0,0,0,0,0,0,0,0,0,0,0,0,0,0,0,0,0,0,0,0,0,0,0,0,0,0,0,0,0,0,0,0,0,0,0,0,0,0,0,0,0,0,0,0,0,0,0,0,0,0,0,0,0,0,0,0,0,0,0,0,0,0,0,0,0,0,0,0,0,0,0,0,0,0,0,0,0,0,0,0,0,0,0,0,0,0,0,0,0,0,0,0,0,0,0,0,0,0,0,0,0,0,0,0,0,0,0,0,0,0,0,0,0,0,0,0,0,0,0,0,0,0,0,0,0,0,0,0,0,0,0,0,0,0,0,0,0,0,0,0,0,0,0,0,0,0,1,0,0,0,0,0,0,0,0,0,0,0,0,0,0,0,0,0,0,0,0,0,0,0,0,0,0,0,0,0,0,0,0,0,0,0,0,0,0,0,0,0,0,0,0,0,0,0,0,0,0,0,0,0,0,0,0,0,0,0,0,0,0,0,0,0,0,0,0,0,0,0,0,0,0,0,0,0,0,0,0,0,0,0,0,0,0,0,0,0,0,0,0,0,0,0,0,0,0,0,0,0,0,0,0,0,0],"sphere1":[2],"sphere2":[2],"atoms":[2,2,4,0]},"atomFeatures":{"sphere1":{"eMBBHRZB":2,"eFBBHcA@":2},"sphere2":{"gC`DADZHRVh@":2,"eMBBHRZB":2}}},{"connectivityMatrix":[[6,4,0,0,0,4,0,0,0],[4,6,4,0,0,0,0,0,0],[0,4,6,4,0,0,0,0,1],[0,0,4,6,4,0,0,1,0],[0,0,0,4,6,4,0,0,0],[4,0,0,0,4,6,1,0,0],[0,0,0,0,0,1,17,0,0],[0,0,0,1,0,0,0,17,0],[0,0,1,0,0,0,0,0,17]],"canonicSmiles":"C1(=CC(=C(C=C1Cl)Cl)Cl)","targets":{"experimental":383.15},"predictedProperties":{"logP":3.4776000380516052,"logS":-3.8239999413490295},"topologicalProperties":{"nbHBondAcceptors":0,"nbHBondDonors":0,"polarSurfaceArea":0,"nbRotatableBonds":0,"nbStereoCenters":0,"mass":181.4470503904028,"monoisotopicMass":179.93003314268998,"charge":0,"mf":"C6H3Cl3","atoms":{"C":6,"H":3,"Cl":3},"unsaturation":4},"fingerprints":{"ocl":[0,0,0,0,0,0,0,0,0,0,0,0,1,0,0,0,0,1,0,0,0,0,0,0,1,0,0,0,0,0,0,0,0,0,0,0,0,0,0,0,0,0,0,0,0,0,0,0,1,0,0,0,0,0,0,0,0,0,0,0,0,0,0,0,0,0,1,0,0,0,0,0,0,0,0,0,0,0,0,0,0,0,0,0,0,0,0,0,0,0,0,0,0,0,0,0,1,0,0,0,0,0,0,0,0,0,0,0,0,0,0,0,0,0,0,0,0,0,0,1,0,0,0,0,0,0,1,0,0,0,0,0,0,0,0,0,0,0,0,0,0,0,0,0,0,1,0,0,1,0,0,0,0,0,0,0,0,0,0,1,0,0,0,0,0,0,0,1,0,0,0,0,0,0,0,0,0,0,0,0,0,0,0,0,0,0,0,0,0,0,0,0,0,0,1,0,0,0,0,0,0,0,0,0,0,0,0,1,0,0,0,0,0,0,0,0,0,0,0,0,0,0,0,0,0,0,0,0,0,0,0,0,0,0,0,0,0,0,0,0,0,0,0,0,0,0,0,0,0,0,0,0,0,0,0,0,0,0,0,0,0,0,0,0,0,0,0,0,0,0,0,0,0,0,0,0,0,0,0,0,0,0,0,0,0,0,0,0,0,0,0,0,0,0,0,0,0,0,0,0,0,0,0,0,0,0,0,0,0,0,0,0,0,0,0,0,0,0,0,0,0,0,0,0,0,0,0,0,0,0,0,0,0,0,0,0,0,0,0,0,0,0,1,0,0,0,0,0,0,0,0,0,0,0,0,0,0,0,0,0,0,0,0,0,0,0,0,0,0,0,0,0,0,0,0,0,0,0,0,0,0,0,0,0,0,0,0,0,0,0,0,0,0,0,0,0,0,0,0,0,0,0,0,0,0,1,0,0,0,0,0,0,0,0,0,0,0,0,0,0,0,0,0,0,0,0,0,0,0,0,0,0,0,0,0,0,0,0,0,0,0,0,0,0,0,0,0,0,0,0,0,0,0,0,0,0,0,0,0,0,0,0,0,0,0,0,0,0,0,0,0,0,0,0,0,0,0,0,0,0,0,0,0,0,0,0,0,0,0,0,0,0,0,0,0,0,0,0,0,0,0,0,0,0,0,0,0,0,0,0,0,0],"sphere1":[3],"sphere2":[3],"atoms":[3,6,3,0]},"atomFeatures":{"sphere1":{"eM@HpB":3,"gC`HADIM@A@":3,"eFBBHcA@":3},"sphere2":{"gGPHADIL|@@P":2,"gNpDADFHRYfB@B":2,"gNpDADVHRYz@`B":1,"gGPHADILl@@P":1,"gC`HADIM@A@":3}}},{"connectivityMatrix":[[6,1,0,1],[1,6,2,0],[0,2,8,0],[1,0,0,17]],"canonicSmiles":"C(C=O)Cl","targets":{"experimental":361.15},"predictedProperties":{"logP":0.06749998033046722,"logS":-1.0929999761283398},"topologicalProperties":{"nbHBondAcceptors":1,"nbHBondDonors":0,"polarSurfaceArea":17.06999969482422,"nbRotatableBonds":1,"nbStereoCenters":0,"mass":78.49763656256411,"monoisotopicMass":77.98724239826,"charge":0,"mf":"C2H3ClO","atoms":{"C":2,"H":3,"Cl":1,"O":1},"unsaturation":1},"fingerprints":{"ocl":[0,0,0,0,1,0,0,0,0,0,0,0,0,0,0,0,0,0,1,0,0,0,0,0,1,0,0,0,1,0,1,1,0,0,0,0,0,0,0,0,0,0,0,0,0,0,0,0,0,0,0,0,0,0,0,0,0,0,0,0,0,0,0,0,0,0,0,0,0,0,0,0,0,0,0,0,0,0,0,0,0,0,0,0,0,0,0,0,0,0,0,0,1,0,0,0,0,0,0,0,0,0,0,0,0,0,0,0,0,0,0,0,0,0,0,0,0,0,0,0,0,0,0,0,0,0,0,0,0,0,0,0,0,0,0,0,0,0,0,0,0,0,0,0,0,0,0,0,0,0,0,0,0,0,0,0,0,0,0,0,0,0,0,0,0,0,0,1,0,0,0,0,0,0,0,0,0,0,0,0,0,0,0,0,0,0,0,0,0,0,0,0,0,0,0,0,0,0,0,0,0,0,0,0,0,0,0,0,0,0,0,0,0,0,0,0,0,0,0,0,0,0,0,0,0,0,0,0,0,0,0,0,0,0,0,0,0,0,0,0,0,0,0,0,0,0,0,0,0,0,0,0,0,0,0,0,0,0,0,0,0,0,0,0,0,0,0,0,0,0,0,0,0,0,0,0,0,0,0,0,0,0,0,0,0,0,0,0,0,0,0,0,0,0,0,0,0,0,0,0,0,0,0,0,0,0,0,0,0,0,0,0,0,0,0,0,0,0,0,0,0,0,0,0,0,0,0,0,0,0,0,0,0,0,0,0,0,0,0,0,0,0,0,0,0,0,0,0,0,0,0,0,0,0,0,0,0,0,0,0,0,0,0,0,0,0,0,0,0,0,0,0,0,0,0,0,0,0,0,0,0,0,0,0,0,0,0,0,0,0,0,0,0,0,0,0,0,0,0,0,0,0,0,0,0,1,0,0,0,0,0,0,0,0,0,0,0,0,0,0,0,0,0,0,0,0,0,0,0,0,0,0,0,0,0,0,0,0,0,0,0,0,0,0,0,0,0,0,0,0,0,0,0,0,0,0,0,0,0,0,0,0,0,0,0,0,0,0,0,0,0,0,0,0,0,0,0,0,0,0,0,0,0,0,1,0,0,0,0,0,0,0,0,0,0,0,0,1,0,0,0,0,0,0,0,0,0,0,0,0,0,0],"sphere1":[1],"sphere2":[1],"atoms":[1,2,3,1]},"atomFeatures":{"sphere1":{"eMBBHRZB":1,"eMHAIXH":1,"eFHBJD":1,"eFBBHcA@":1},"sphere2":{"gCaHLHaIZP@":2,"eMHAIXH":1,"eMBBHRZB":1}}},{"connectivityMatrix":[[6,1,0,1],[1,6,1,0],[0,1,17,0],[1,0,0,8]],"canonicSmiles":"C(CCl)O","targets":{"experimental":333.15},"predictedProperties":{"logP":0.2797999829053879,"logS":-0.877999983727932},"topologicalProperties":{"nbHBondAcceptors":1,"nbHBondDonors":1,"polarSurfaceArea":20.229999542236328,"nbRotatableBonds":1,"nbStereoCenters":0,"mass":80.51351807067567,"monoisotopicMass":80.00289246272,"charge":0,"mf":"C2H5ClO","atoms":{"C":2,"H":5,"Cl":1,"O":1},"unsaturation":0},"fingerprints":{"ocl":[0,0,0,0,0,0,0,0,0,0,1,0,0,0,0,0,0,0,0,1,0,0,0,0,0,0,1,0,1,1,1,1,0,0,0,0,0,0,0,0,0,0,0,0,0,0,0,0,0,0,0,0,0,0,0,0,0,0,0,0,0,0,0,0,0,0,0,0,0,0,0,0,0,0,0,0,0,0,0,0,0,0,0,0,0,0,0,0,0,0,0,0,0,0,0,0,0,0,0,0,0,0,0,0,0,0,0,0,0,0,0,0,0,0,0,0,0,0,0,0,0,0,0,0,0,0,0,0,0,0,0,0,0,0,0,0,0,0,0,0,0,0,0,0,0,0,0,0,0,0,0,0,0,0,0,0,0,0,0,0,0,0,0,0,0,0,0,1,0,0,0,0,0,0,0,0,0,0,0,0,0,0,0,0,0,0,0,0,0,0,0,0,0,0,0,0,0,0,0,0,0,0,0,0,0,0,0,0,0,0,0,0,0,0,0,0,0,0,0,0,0,0,0,0,0,0,0,0,0,0,0,0,0,0,0,0,0,0,0,0,0,0,0,0,0,0,0,0,0,0,0,0,0,0,0,0,0,0,0,0,0,0,0,0,0,0,0,0,0,0,0,0,0,0,0,0,0,0,0,0,0,0,0,0,0,0,0,0,0,0,0,0,0,0,0,0,0,0,0,0,0,0,0,0,0,0,0,0,0,0,0,0,0,0,0,0,0,0,0,0,0,0,0,0,0,0,0,0,0,0,0,0,0,0,0,0,0,0,0,0,0,0,0,0,0,0,0,0,0,0,0,0,0,0,0,0,0,0,0,0,0,0,0,0,0,0,0,0,0,0,0,0,0,0,0,0,0,0,0,0,0,0,0,0,0,0,0,0,0,0,0,0,0,0,0,0,0,0,0,0,0,0,0,0,0,1,0,0,0,0,0,0,0,0,0,0,0,0,0,0,0,0,0,0,0,0,0,0,0,0,0,0,0,0,0,0,0,0,0,0,0,0,0,0,0,0,0,0,0,0,0,0,0,0,0,0,0,0,0,0,0,0,0,0,0,0,0,0,0,0,0,0,0,0,0,0,0,0,0,0,0,0,1,0,0,0,0,0,0,0,0,0,0,0,0,1,0,0,0,0,0,0,0,0,0,0,0,0,0,0,0,0],"sphere1":[1],"sphere2":[1],"atoms":[1,2,5,1]},"atomFeatures":{"sphere1":{"eMHAIhH":1,"eMBBHRZB":1,"eFBBHcA@":1,"eFHBLD":1},"sphere2":{"gCaHLHaIZ`@":2,"eMBBHRZB":1,"eMHAIhH":1}}},{"connectivityMatrix":[[6,1,0,1],[1,6,1,0],[0,1,8,0],[1,0,0,8]],"canonicSmiles":"C(CO)O","targets":{"experimental":384.15},"predictedProperties":{"logP":-0.8762000203132629,"logS":0.03000001609325409},"topologicalProperties":{"nbHBondAcceptors":2,"nbHBondDonors":2,"polarSurfaceArea":40.459999084472656,"nbRotatableBonds":1,"nbStereoCenters":0,"mass":62.067926166441715,"monoisotopicMass":62.03677943252,"charge":0,"mf":"C2H6O2","atoms":{"C":2,"H":6,"O":2},"unsaturation":0},"fingerprints":{"ocl":[0,0,0,0,0,0,0,0,0,0,1,0,0,0,0,0,0,0,0,1,0,0,0,0,0,0,1,0,1,1,1,1,0,0,0,0,0,0,0,0,0,0,0,0,0,0,0,0,0,0,0,0,0,0,0,0,0,0,0,0,0,0,0,0,0,0,0,0,0,0,0,0,0,0,0,0,0,0,0,0,0,0,0,0,0,0,0,0,0,0,0,0,0,0,0,0,0,0,0,0,0,0,0,0,0,0,0,0,0,0,0,0,0,0,0,0,0,0,0,0,0,0,0,0,0,0,0,0,0,0,0,0,0,0,0,0,0,0,0,0,0,0,0,0,0,0,0,0,0,0,0,0,0,0,0,0,0,0,0,0,0,0,0,0,0,0,0,0,0,0,0,0,0,0,0,0,0,0,0,0,0,0,0,0,0,0,0,0,0,0,0,0,0,0,0,0,0,0,0,0,0,0,0,0,0,0,0,0,0,0,0,0,0,0,0,0,0,0,0,0,0,0,0,0,0,0,0,0,0,0,0,0,0,0,0,0,0,0,0,0,0,0,0,0,0,0,0,0,0,0,0,0,0,0,0,0,0,0,0,0,0,0,0,0,0,0,0,0,0,0,0,0,0,0,0,0,0,0,0,0,0,0,0,0,0,0,0,0,0,0,0,0,0,0,0,0,0,0,0,0,1,0,0,0,0,0,0,0,0,0,0,0,0,0,0,0,0,0,0,0,0,0,0,0,0,0,0,0,0,0,0,0,0,0,0,0,0,0,0,0,0,0,0,0,0,0,0,0,0,0,0,0,0,0,0,0,0,0,0,0,0,0,0,0,0,0,0,0,0,0,0,0,0,0,0,0,0,0,0,0,0,0,0,0,0,0,0,0,0,0,0,0,0,0,0,0,0,0,0,0,0,0,0,0,0,0,0,0,0,0,0,0,0,0,0,0,0,0,0,0,0,0,0,0,0,0,0,0,0,0,0,0,0,0,0,0,0,0,0,0,0,0,0,0,0,0,0,0,0,0,0,0,0,0,0,0,0,0,0,0,0,0,0,0,0,0,0,0,0,0,0,0,0,0,0,0,0,0,0,0,0,0,1,0,0,0,0,0,0,0,0,0,0,0,0,1,0,0,0,0,0,0,0,0,0,0,0,0,0,0,0,0],"sphere1":[2],"sphere2":[2],"atoms":[0,2,6,2]},"atomFeatures":{"sphere1":{"eMHAIhH":2,"eFHBLD":2},"sphere2":{"gC``Adej@@":2,"eMHAIhH":2}}},{"connectivityMatrix":[[6,1,0,0],[1,6,2,1],[0,2,8,0],[0,1,0,8]],"canonicSmiles":"CC(=O)O","targets":{"experimental":313.15},"predictedProperties":{"logP":-0.29910001158714294,"logS":-0.45899997279047966},"topologicalProperties":{"nbHBondAcceptors":2,"nbHBondDonors":1,"polarSurfaceArea":37.29999923706055,"nbRotatableBonds":0,"nbStereoCenters":0,"mass":60.05204465833016,"monoisotopicMass":60.02112936806,"charge":0,"mf":"C2H4O2","atoms":{"C":2,"H":4,"O":2},"unsaturation":1},"fingerprints":{"ocl":[0,0,0,0,1,0,0,0,0,0,1,0,0,0,0,0,0,1,0,1,0,0,0,0,1,0,0,0,1,0,1,1,0,0,0,0,0,0,0,0,0,0,0,0,0,0,0,0,0,0,0,0,0,0,0,0,0,0,0,0,0,0,1,0,0,0,0,0,0,0,0,0,0,0,0,0,1,0,0,0,0,0,0,0,0,0,0,0,0,0,0,0,0,0,0,0,0,0,0,0,0,0,0,0,0,0,0,0,0,0,0,0,0,0,0,0,0,0,0,0,0,0,0,0,0,0,0,0,0,0,0,0,0,0,0,0,0,0,0,0,0,0,0,0,0,0,0,0,0,0,0,0,0,0,0,0,0,0,0,0,0,0,0,0,0,0,0,0,0,0,0,0,0,0,0,0,0,0,0,0,0,0,0,0,0,0,0,0,0,0,0,0,0,0,0,0,0,0,0,0,0,0,0,0,0,0,0,0,0,0,0,0,0,0,0,0,0,0,0,0,0,0,0,0,0,0,0,0,0,0,0,0,0,0,0,0,0,0,0,0,0,0,0,0,0,0,0,0,0,0,0,0,0,0,0,0,0,0,0,0,0,0,0,0,0,0,0,0,0,0,0,0,0,0,0,0,0,0,0,0,0,0,0,0,0,0,0,0,0,0,0,0,0,0,0,0,0,0,0,0,0,0,0,0,0,0,0,0,0,0,0,0,0,0,0,0,0,0,0,0,0,0,0,0,0,0,0,0,0,0,0,0,0,0,0,0,0,0,0,0,0,0,0,0,0,0,0,0,0,0,0,0,0,0,0,0,0,0,0,0,0,0,0,0,0,0,0,0,0,0,0,0,0,0,0,0,0,0,0,0,0,0,0,0,0,0,0,0,0,0,0,0,0,0,0,0,0,0,0,0,0,0,0,0,0,0,0,0,0,0,0,0,0,0,0,0,0,0,0,0,0,0,0,0,0,0,0,0,0,0,0,0,0,0,0,0,0,0,0,0,0,0,0,0,0,0,0,0,0,0,0,0,0,0,0,0,0,0,0,0,0,0,0,0,0,0,0,0,0,0,0,0,0,0,0,0,0,0,0,0,0,0,1,1,0,0,0,0,0,0,0,0,0,0,0,1,1,0,0,0,0,0,0,0,0,0,0,0,0,0,0,0],"sphere1":[1],"sphere2":[4],"atoms":[0,2,4,2]},"atomFeatures":{"sphere1":{"eF@HpP":1,"gC``@dfZ@@":1,"eFHBJD":1,"eFHBLD":1},"sphere2":{"gC``@dfZ@@":4}}},{"connectivityMatrix":[[6,1,0],[1,6,2],[0,2,8]],"canonicSmiles":"CC=O","targets":{"experimental":233.15},"predictedProperties":{"logP":-0.16180002689361572,"logS":-0.6919999681413174},"topologicalProperties":{"nbHBondAcceptors":1,"nbHBondDonors":0,"polarSurfaceArea":17.06999969482422,"nbRotatableBonds":0,"nbStereoCenters":0,"mass":44.05263973401188,"monoisotopicMass":44.026214748490005,"charge":0,"mf":"C2H4O","atoms":{"C":2,"H":4,"O":1},"unsaturation":1},"fingerprints":{"ocl":[0,0,0,0,1,0,0,0,0,0,0,0,0,0,0,0,0,0,0,0,0,0,0,0,1,0,0,0,1,0,1,0,0,0,0,0,0,0,0,0,0,0,0,0,0,0,0,0,0,0,0,0,0,0,0,0,0,0,0,0,0,0,0,0,0,0,0,0,0,0,0,0,0,0,0,0,0,0,0,0,0,0,0,0,0,0,0,0,0,0,0,0,0,0,0,0,0,0,0,0,0,0,0,0,0,0,0,0,0,0,0,0,0,0,0,0,0,0,0,0,0,0,0,0,0,0,0,0,0,0,0,0,0,0,0,0,0,0,0,0,0,0,0,0,0,0,0,0,0,0,0,0,0,0,0,0,0,0,0,0,0,0,0,0,0,0,0,0,0,0,0,0,0,0,0,0,0,0,0,0,0,0,0,0,0,0,0,0,0,0,0,0,0,0,0,0,0,0,0,0,0,0,0,0,0,0,0,0,0,0,0,0,0,0,0,0,0,0,0,0,0,0,0,0,0,0,0,0,0,0,0,0,0,0,0,0,0,0,0,0,0,0,0,0,0,0,0,0,0,0,0,0,0,0,0,0,0,0,0,0,0,0,0,0,0,0,0,0,0,0,0,0,0,0,0,0,0,0,0,0,0,0,0,0,0,0,0,0,0,0,0,0,0,0,0,0,0,0,0,0,0,0,0,0,0,0,0,0,0,0,0,0,0,0,0,0,0,0,0,0,0,0,0,0,0,0,0,0,0,0,0,0,0,0,0,0,0,0,0,0,0,0,0,0,0,0,0,0,0,0,0,0,0,0,0,0,0,0,0,0,0,0,0,0,0,0,0,0,0,0,0,0,0,0,0,0,0,0,0,0,0,0,0,0,0,0,0,0,0,0,0,0,0,0,0,0,0,0,0,0,0,0,0,0,0,0,0,0,0,0,0,0,0,0,0,0,0,0,0,0,0,0,0,0,0,0,0,0,0,0,0,0,0,0,0,0,0,0,0,0,0,0,0,0,0,0,0,0,0,0,0,0,0,0,0,0,0,0,0,0,0,0,0,0,0,0,0,0,0,0,0,0,0,0,0,0,0,0,0,0,0,0,0,0,1,0,0,0,0,0,0,0,0,0,0,0,0,1,0,0,0,0,0,0,0,0,0,0,0,0,0,0],"sphere1":[1],"sphere2":[3],"atoms":[0,2,4,1]},"atomFeatures":{"sphere1":{"eF@HpP":1,"eMHAIX@":1,"eFHBJD":1},"sphere2":{"eMHAIX@":3}}},{"connectivityMatrix":[[6,1,0,0,0,0],[1,6,1,0,0,1],[0,1,6,2,1,0],[0,0,2,8,0,0],[0,0,1,0,6,0],[0,1,0,0,0,8]],"canonicSmiles":"CC(C(=O)C)O","targets":{"experimental":314.15},"predictedProperties":{"logP":-0.18880003690719604,"logS":-0.7769999634474516},"topologicalProperties":{"nbHBondAcceptors":2,"nbHBondDonors":1,"polarSurfaceArea":37.29999923706055,"nbRotatableBonds":1,"nbStereoCenters":1,"mass":88.10527946802377,"monoisotopicMass":88.05242949698001,"charge":0,"mf":"C4H8O2","atoms":{"C":4,"H":8,"O":2},"unsaturation":1},"fingerprints":{"ocl":[1,0,0,0,1,0,0,0,0,1,1,0,0,1,0,0,0,0,1,1,0,1,0,1,1,0,1,0,1,1,1,1,0,0,0,0,0,1,0,1,0,0,0,0,0,0,0,0,0,0,0,0,0,1,0,0,0,0,0,1,0,0,1,0,0,0,0,0,0,1,0,0,1,0,0,0,0,0,0,0,0,0,0,0,0,0,0,0,0,0,0,0,1,1,0,0,0,0,0,0,0,0,0,0,0,0,0,0,0,0,0,0,0,0,0,0,0,0,0,0,0,0,1,0,0,0,0,1,0,1,0,0,0,0,0,0,1,0,0,0,0,0,0,0,0,0,0,0,0,0,0,0,0,0,0,0,0,0,1,0,0,0,0,0,0,0,0,0,0,0,0,0,0,0,0,0,0,0,0,0,0,0,0,0,0,0,0,0,1,0,0,0,0,0,0,0,0,0,0,1,0,0,0,0,0,0,0,0,0,0,0,0,0,0,0,0,0,0,0,0,0,0,0,0,0,0,0,0,0,0,0,0,0,0,0,0,0,0,0,0,0,0,0,0,0,0,0,0,0,0,0,0,0,0,0,0,0,0,0,0,0,0,0,0,0,0,0,0,0,0,0,0,0,0,0,0,0,0,0,0,0,0,0,0,0,0,0,0,0,0,0,0,0,0,0,0,0,0,0,0,0,0,0,0,0,0,0,0,0,0,0,0,0,0,0,0,0,0,0,0,0,0,0,0,0,0,0,0,0,0,0,0,0,0,0,0,0,0,0,0,0,0,0,0,0,0,0,0,0,0,0,0,0,0,0,0,0,0,0,0,0,0,0,0,0,0,0,0,0,0,0,0,0,0,0,0,0,0,0,0,0,0,0,0,0,0,0,0,0,1,0,0,0,0,0,0,0,0,0,0,0,0,0,0,0,0,0,0,0,0,0,0,0,0,0,0,0,0,0,0,0,0,0,0,0,0,0,0,0,0,0,0,0,0,0,0,0,0,0,0,0,0,0,0,0,0,0,0,0,0,0,0,0,0,0,0,0,0,0,0,0,0,1,0,0,0,0,0,0,0,0,0,0,0,0,0,0,0,0,0,0,0,1,0,0,0,0,0,0,0,0,0,0,0,0,1,0,0,0,0,0,0,0,0,0,0,0,0,0,0,0,0],"sphere1":[1],"sphere2":[2],"atoms":[0,4,8,2]},"atomFeatures":{"sphere1":{"eF@HpP":2,"gCa@@duPD":1,"gCa@@dsPD":1,"eFHBJD":1,"eFHBLD":1},"sphere2":{"gCa@@duPD":2,"gGP`@TfYj`@":2,"gCa@@dsPD":2}}}],"fingerprintInfo":{"sphere1AtomFeature":[{"label":"undefined","counter":56}],"sphere2AtomFeature":[{"label":"undefined","counter":56}],"atoms":[{"label":"undefined","counter":11},{"label":"C","counter":31},{"label":"H","counter":49},{"label":"O","counter":14}]},"dir":"flashpoint","newFilename":"data.json","meta":{"name":"flashpoint","smiles_col":"smiles","task":"regression","description":"Sun et al. collected a dataset of the flashpoints of 10575 molecules from \nacademic papers, the Gelest chemical catalogue, the DIPPR database, \nLange's Handbook of Chemistry, the Hazardous Chemicals Handbook,\nand the PubChem database.\nIncludes flashpoints measured with both open and closed cup methods.\n","targets":[{"name":"flashpoint","alias":"experimental","description":"experimental flashpoint of the molecule","units":"K"}],"license":"CC BY 4.0","links":[{"name":"dataset","url":"https://figshare.com/articles/dataset/Data_for_Assessing_Graph-based_Deep_Learning_Models_for_Predicting_Flash_Point/9275210","description":"Original figshare dataset"}],"bibtex":["\"@article{Sun_2020,\n doi = {10.1002/minf.201900101},\n url = {https://doi.org/10.1002%2Fminf.201900101},\n year = 2020,\n month = {feb},\n publisher = {Wiley},\n volume = {39},\n number = {6},\n pages = {1900101},\n author = {Xiaoyu Sun and Nathaniel J. Krakauer and Alexander Politowicz and Wei-Ting Chen and Qiying Li and Zuoyi Li and Xianjia Shao and Alfred Sunaryo and Mingren Shen and James Wang and Dane Morgan},\n title = {Assessing Graph-based Deep Learning Models for Predicting Flash Point},\n journal = {Mol. Inf.}\n }\"\n"]}}