{"entries":[{"connectivityMatrix":[[6,1,1,1,1],[1,9,0,0,0],[1,0,9,0,0],[1,0,0,9,0],[1,0,0,0,9]],"smiles":"C(F)(F)(F)F","canonicSmiles":"C(F)(F)(F)F","targets":{"experimental":18.8},"predictedProperties":{"logP":1.5143001079559326,"logS":-1.7639999985694885},"topologicalProperties":{"nbHBondAcceptors":0,"nbHBondDonors":0,"polarSurfaceArea":0,"nbRotatableBonds":0,"nbStereoCenters":0,"mass":88.00434854765524,"monoisotopicMass":87.99361265092,"charge":0,"mf":"CF4","atoms":{"C":1,"F":4},"unsaturation":0},"fingerprints":{"ocl":[1,0,0,0,0,0,0,0,0,0,0,0,0,0,0,0,0,0,0,0,0,1,0,0,0,0,0,0,0,0,0,1,0,0,0,0,0,0,0,0,0,0,0,0,0,0,0,0,0,0,0,0,0,0,0,0,0,0,0,0,0,0,0,0,0,0,0,0,0,0,0,0,0,0,0,0,0,0,0,0,0,0,0,0,0,0,0,0,0,0,0,0,0,0,0,0,0,0,0,0,0,0,0,0,0,0,0,0,0,0,0,1,0,0,0,0,0,0,0,0,0,0,0,0,0,0,0,0,0,0,0,0,0,0,0,0,0,0,0,0,0,0,0,0,0,0,0,0,0,0,0,0,0,0,0,0,0,0,0,0,0,0,0,0,0,0,0,0,0,0,0,0,0,0,0,0,0,0,0,0,0,0,0,0,0,0,0,0,0,0,0,0,0,0,0,0,0,0,0,0,0,0,1,0,0,0,0,0,0,0,0,0,0,0,0,0,0,0,0,0,0,0,0,0,0,0,0,0,0,0,0,0,0,0,0,0,0,0,0,0,0,0,0,0,0,0,0,0,0,0,0,0,0,0,0,0,0,0,0,0,0,0,0,0,0,0,0,0,0,0,0,0,0,0,0,0,0,0,0,0,0,0,0,0,0,0,0,0,0,0,0,0,0,0,0,0,0,0,0,0,0,0,0,0,0,0,0,0,0,0,0,0,0,0,0,0,0,0,0,0,0,0,0,0,0,0,0,0,0,0,0,0,0,0,0,0,0,0,0,0,0,0,0,0,0,0,0,0,0,0,0,0,0,0,0,0,0,0,0,0,0,0,0,0,0,0,0,0,0,0,0,0,0,0,0,0,0,0,0,0,0,0,0,0,0,0,0,0,0,0,0,0,0,0,0,0,0,0,0,0,0,0,0,0,0,0,0,0,0,0,0,0,0,0,0,0,0,0,0,0,0,0,0,0,0,0,0,0,0,0,0,0,0,0,0,0,0,0,0,0,0,0,0,0,0,0,0,0,0,0,0,0,0,0,0,0,0,0,0,0,0,0,0,0,0,0,0,0,0,0,0,0,0,0,0,0,0,0,0,0,0,0,0,0,0,0,0,0,0,0,0,1,0,0,0,0,0,0,0,0,0,0,0,0,0,0,0,0,0,0,0,0],"sphere1":[1,4],"sphere2":[5,0],"atoms":[0,1,4,0]},"atomFeatures":{"sphere1":{"gJPBAHJPt`YAIjj@@":1,"eFBBPcA@":4},"sphere2":{"gJPBAHJPt`YAIjj@@":5}}},{"connectivityMatrix":[[6]],"smiles":"C","canonicSmiles":"C","targets":{"experimental":22},"predictedProperties":{"logP":0,"logS":-0.5299999713897705},"topologicalProperties":{"nbHBondAcceptors":0,"nbHBondDonors":0,"polarSurfaceArea":0,"nbRotatableBonds":0,"nbStereoCenters":0,"mass":16.042498912958358,"monoisotopicMass":16.03130012892,"charge":0,"mf":"CH4","atoms":{"C":1,"H":4},"unsaturation":0},"fingerprints":{"ocl":[0,0,0,0,0,0,0,0,0,0,0,0,0,0,0,0,0,0,0,0,0,0,0,0,0,0,0,0,0,0,0,0,0,0,0,0,0,0,0,0,0,0,0,0,0,0,0,0,0,0,0,0,0,0,0,0,0,0,0,0,0,0,0,0,0,0,0,0,0,0,0,0,0,0,0,0,0,0,0,0,0,0,0,0,0,0,0,0,0,0,0,0,0,0,0,0,0,0,0,0,0,0,0,0,0,0,0,0,0,0,0,0,0,0,0,0,0,0,0,0,0,0,0,0,0,0,0,0,0,0,0,0,0,0,0,0,0,0,0,0,0,0,0,0,0,0,0,0,0,0,0,0,0,0,0,0,0,0,0,0,0,0,0,0,0,0,0,0,0,0,0,0,0,0,0,0,0,0,0,0,0,0,0,0,0,0,0,0,0,0,0,0,0,0,0,0,0,0,0,0,0,0,0,0,0,0,0,0,0,0,0,0,0,0,0,0,0,0,0,0,0,0,0,0,0,0,0,0,0,0,0,0,0,0,0,0,0,0,0,0,0,0,0,0,0,0,0,0,0,0,0,0,0,0,0,0,0,0,0,0,0,0,0,0,0,0,0,0,0,0,0,0,0,0,0,0,0,0,0,0,0,0,0,0,0,0,0,0,0,0,0,0,0,0,0,0,0,0,0,0,0,0,0,0,0,0,0,0,0,0,0,0,0,0,0,0,0,0,0,0,0,0,0,0,0,0,0,0,0,0,0,0,0,0,0,0,0,0,0,0,0,0,0,0,0,0,0,0,0,0,0,0,0,0,0,0,0,0,0,0,0,0,0,0,0,0,0,0,0,0,0,0,0,0,0,0,0,0,0,0,0,0,0,0,0,0,0,0,0,0,0,0,0,0,0,0,0,0,0,0,0,0,0,0,0,0,0,0,0,0,0,0,0,0,0,0,0,0,0,0,0,0,0,0,0,0,0,0,0,0,0,0,0,0,0,0,0,0,0,0,0,0,0,0,0,0,0,0,0,0,0,0,0,0,0,0,0,0,0,0,0,0,0,0,0,0,0,0,0,0,0,0,0,0,0,0,0,0,0,0,0,0,0,0,0,0,0,0,0,0,0,0,0,0,0,0,0,0,0,0,0,0,0,0,0,0,0,0,0,0,0,0],"sphere1":[1,0],"sphere2":[1,0],"atoms":[0,1,0,4]},"atomFeatures":{"sphere1":{"fH@@":1},"sphere2":{"fH@@":1}}},{"connectivityMatrix":[[6,1,0,0,0,1,1,1],[1,6,1,1,1,0,0,0],[0,1,9,0,0,0,0,0],[0,1,0,9,0,0,0,0],[0,1,0,0,9,0,0,0],[1,0,0,0,0,9,0,0],[1,0,0,0,0,0,9,0],[1,0,0,0,0,0,0,9]],"smiles":"C(C(F)(F)F)(F)(F)F","canonicSmiles":"C(C(F)(F)F)(F)(F)F","targets":{"experimental":7.78},"predictedProperties":{"logP":1.9458000659942627,"logS":-2.4640000462532043},"topologicalProperties":{"nbHBondAcceptors":0,"nbHBondDonors":0,"polarSurfaceArea":0,"nbRotatableBonds":1,"nbStereoCenters":0,"mass":138.01189076985048,"monoisotopicMass":137.99041897638,"charge":0,"mf":"C2F6","atoms":{"C":2,"F":6},"unsaturation":0},"fingerprints":{"ocl":[1,0,0,0,0,0,0,0,0,0,0,0,0,0,0,0,0,0,0,0,0,1,0,0,0,0,1,0,0,1,1,1,0,0,0,0,0,0,0,0,0,0,0,0,0,0,0,0,0,1,0,0,0,1,0,0,0,0,0,0,0,0,0,0,0,0,0,0,0,0,0,0,0,0,0,0,0,0,0,0,0,0,0,0,0,0,0,0,0,0,0,0,0,0,0,0,0,0,0,0,0,0,0,0,0,0,0,0,0,0,1,1,0,0,0,0,0,0,0,0,0,0,0,0,0,0,0,0,0,0,0,0,0,0,0,0,0,0,0,0,0,0,0,0,0,0,0,0,0,0,0,0,0,0,0,0,0,0,0,0,0,0,0,0,0,0,0,0,0,0,0,0,0,0,0,0,0,0,0,1,0,0,0,0,0,0,0,0,0,0,0,0,0,0,0,0,0,0,0,0,0,0,1,0,0,0,0,0,0,0,0,0,0,0,0,0,0,0,0,0,0,0,0,0,0,0,0,0,0,0,0,0,0,0,0,0,0,0,0,0,0,0,0,0,0,0,0,0,0,0,0,0,0,0,0,0,0,0,0,0,0,0,0,0,0,0,0,0,0,0,0,0,0,0,0,0,0,0,0,0,0,0,0,0,0,0,0,0,0,0,0,0,0,0,0,0,0,1,0,0,0,0,0,0,0,0,0,0,0,0,0,0,0,0,0,0,0,1,0,0,0,0,0,0,0,0,0,0,0,0,0,0,0,0,0,0,0,0,0,0,0,0,0,0,0,0,0,0,0,0,0,0,0,0,0,0,0,0,0,0,0,0,0,0,0,0,0,0,0,0,0,0,0,0,0,0,0,0,0,0,0,0,0,0,0,0,0,0,0,0,0,0,0,0,0,0,0,0,0,0,0,0,0,0,0,0,0,0,0,0,0,0,0,0,0,0,0,0,0,0,0,0,0,0,0,0,0,0,0,0,0,0,0,0,0,0,0,0,0,0,0,0,0,0,0,0,0,0,0,0,0,0,0,0,0,0,0,0,0,0,0,0,0,0,0,0,0,0,0,0,0,0,0,0,0,0,0,0,0,0,0,0,0,0,0,0,0,0,0,0,0,1,0,0,0,0,0,0,0,0,0,0,0,0,0,0,0,0,0,0,0,0],"sphere1":[2,6],"sphere2":[2,6],"atoms":[0,2,6,0]},"atomFeatures":{"sphere1":{"gJPLAHJPt`duU@P":2,"eFBBPcA@":6},"sphere2":{"dax@X@dDdLdJdFdNdLbdLeUT@@":2,"gJPLAHJPt`duU@P":6}}},{"connectivityMatrix":[[6,1,1,1],[1,9,0,0],[1,0,9,0],[1,0,0,9]],"smiles":"C(F)(F)F","canonicSmiles":"C(F)(F)F","targets":{"experimental":4090},"predictedProperties":{"logP":0.5847000479698181,"logS":-1.362999975681305},"topologicalProperties":{"nbHBondAcceptors":0,"nbHBondDonors":0,"polarSurfaceArea":0,"nbRotatableBonds":0,"nbStereoCenters":0,"mass":70.01388613898102,"monoisotopicMass":70.00303452042,"charge":0,"mf":"CHF3","atoms":{"C":1,"H":1,"F":3},"unsaturation":0},"fingerprints":{"ocl":[1,0,0,0,0,0,0,0,0,0,0,0,0,0,0,0,0,0,0,0,0,1,0,0,0,0,0,0,0,0,0,1,0,0,0,0,0,0,0,0,0,0,0,0,0,0,0,0,0,0,0,0,0,0,0,0,0,0,0,0,0,0,0,0,0,0,0,0,0,0,0,0,0,0,0,0,0,0,0,0,0,0,0,0,0,0,0,0,0,0,0,0,0,0,0,0,0,0,0,0,0,0,0,0,0,0,0,0,0,0,0,0,0,0,0,0,0,0,0,0,0,0,0,0,0,0,0,0,0,0,0,0,0,0,0,0,0,0,0,0,0,0,0,0,0,0,0,0,0,0,0,0,0,0,0,0,0,0,0,0,0,0,0,0,0,0,0,0,0,0,0,0,0,0,0,0,0,0,0,0,0,0,0,0,0,0,0,0,0,0,0,0,0,0,0,0,0,0,0,0,0,0,0,0,0,0,0,0,0,0,0,0,0,0,0,0,0,0,0,0,0,0,0,0,0,0,0,0,0,0,0,0,0,0,0,0,0,0,0,0,0,0,0,0,0,0,0,0,0,0,0,0,0,0,0,0,0,0,0,0,0,0,0,0,0,0,0,0,0,0,0,0,0,0,0,0,0,0,0,0,0,0,0,0,0,0,0,0,0,0,0,0,0,0,0,0,0,0,0,0,0,0,0,0,0,0,0,0,0,0,0,0,0,0,0,0,0,0,0,0,0,0,0,0,0,0,0,0,0,0,0,0,0,0,0,0,0,0,0,0,0,0,0,0,0,0,0,0,0,0,0,0,0,0,0,0,0,0,0,0,0,0,0,0,0,0,0,0,0,0,0,0,0,0,0,0,0,0,0,0,0,0,0,0,0,0,0,0,0,0,0,0,0,0,0,0,0,0,0,0,0,0,0,0,0,0,0,0,0,0,0,0,0,0,0,0,0,0,0,0,0,0,0,0,0,0,0,0,0,0,0,0,0,0,0,0,0,0,0,0,0,0,0,0,0,0,0,0,0,0,0,0,0,0,0,0,0,0,0,0,0,0,0,0,0,0,0,0,0,0,0,0,0,0,0,0,0,0,0,0,0,0,0,0,0,0,0,0,0,0,0,1,0,0,0,0,0,0,0,0,0,0,0,0,0,0,0,0,0,0,0,0],"sphere1":[1,3],"sphere2":[4,0],"atoms":[0,1,3,1]},"atomFeatures":{"sphere1":{"gC`LAHJPt`duP@":1,"eFBBPcA@":3},"sphere2":{"gC`LAHJPt`duP@":4}}},{"connectivityMatrix":[[6,3,1,0,0,0],[3,7,0,0,0,0],[1,0,6,1,1,1],[0,0,1,9,0,0],[0,0,1,0,9,0],[0,0,1,0,0,9]],"smiles":"C(#N)C(F)(F)F","canonicSmiles":"C(#N)C(F)(F)F","targets":{"experimental":0.104},"predictedProperties":{"logP":0.7071000393480062,"logS":-1.871999979019165},"topologicalProperties":{"nbHBondAcceptors":1,"nbHBondDonors":0,"polarSurfaceArea":23.790000915527344,"nbRotatableBonds":0,"nbStereoCenters":0,"mass":95.02338449310629,"monoisotopicMass":94.99828349262,"charge":0,"mf":"C2F3N","atoms":{"C":2,"F":3,"N":1},"unsaturation":2},"fingerprints":{"ocl":[1,0,0,0,0,0,0,0,0,0,0,0,0,0,0,1,0,0,0,0,0,1,0,0,0,0,0,0,0,0,1,1,0,0,0,0,0,0,0,0,0,0,0,0,0,0,0,0,0,0,0,0,0,0,0,0,0,0,0,0,0,0,0,0,0,0,0,0,0,0,0,0,0,0,0,0,0,0,0,0,0,0,0,0,0,0,0,0,0,0,0,0,0,0,0,0,0,0,0,0,0,0,0,0,0,0,0,0,0,0,0,1,0,0,0,0,0,0,0,0,0,0,0,0,0,0,0,0,0,0,0,0,0,0,0,0,0,0,0,0,0,0,0,0,0,0,0,0,0,0,0,0,0,0,0,0,0,0,0,0,0,0,0,0,0,0,0,0,0,0,0,0,0,0,0,0,0,0,0,0,0,0,0,0,0,0,0,0,0,0,0,0,0,0,0,0,0,0,0,0,0,0,1,0,0,0,0,0,0,0,0,0,0,0,0,0,0,0,0,0,0,0,0,0,0,0,0,0,0,0,0,0,0,0,0,0,0,0,0,0,0,0,0,0,0,0,0,0,0,0,0,0,0,0,0,0,0,0,0,0,0,0,0,0,0,0,0,0,0,0,0,0,0,0,0,0,0,0,0,0,0,0,0,0,0,0,0,0,0,0,0,0,0,0,0,0,0,0,0,0,0,0,0,0,0,0,0,0,0,0,0,0,0,0,0,0,0,0,0,0,0,0,0,0,0,0,0,0,0,0,0,0,0,0,0,0,0,0,0,0,0,0,0,0,0,0,0,0,0,0,0,0,0,0,0,0,0,0,0,0,0,0,0,0,0,0,0,0,0,0,0,0,0,0,0,0,0,0,0,0,0,0,0,0,0,0,0,0,0,0,0,0,0,0,0,0,0,0,0,0,0,0,0,0,0,0,0,0,0,0,0,0,0,0,0,0,0,0,0,0,0,0,0,0,0,0,0,0,0,0,0,0,0,0,0,0,0,0,0,0,0,0,0,0,0,0,0,0,0,0,0,0,0,0,0,0,0,0,0,0,0,0,0,0,0,0,0,0,0,0,0,0,0,0,0,0,0,0,0,0,0,0,0,0,0,0,0,0,0,0,0,1,0,1,0,0,0,0,0,0,0,0,0,0,0,0,0,0,0,0,0,0],"sphere1":[1,3],"sphere2":[1,3],"atoms":[1,2,3,0]},"atomFeatures":{"sphere1":{"eM`AIxH":1,"eF`BND":1,"gJPLAHJPt`duU@P":1,"eFBBPcA@":3},"sphere2":{"gGXLJIARFdLbdMU`@":2,"eM`AIxH":1,"gJPLAHJPt`duU@P":3}}},{"connectivityMatrix":[[6,1,0,0,0],[1,6,1,1,1],[0,1,9,0,0],[0,1,0,9,0],[0,1,0,0,9]],"smiles":"CC(F)(F)F","canonicSmiles":"CC(F)(F)F","targets":{"experimental":761},"predictedProperties":{"logP":1.4615000188350677,"logS":-1.7240000069141388},"topologicalProperties":{"nbHBondAcceptors":0,"nbHBondDonors":0,"polarSurfaceArea":0,"nbRotatableBonds":0,"nbStereoCenters":0,"mass":84.04050354382782,"monoisotopicMass":84.01868458487999,"charge":0,"mf":"C2H3F3","atoms":{"C":2,"H":3,"F":3},"unsaturation":0},"fingerprints":{"ocl":[1,0,0,0,0,0,0,0,0,0,0,0,0,0,0,0,0,0,0,0,0,1,0,0,0,0,0,0,0,0,1,1,0,0,0,0,0,0,0,0,0,0,0,0,0,0,0,0,0,0,0,0,0,0,0,0,0,0,0,0,0,0,0,0,0,0,0,0,0,0,0,0,0,0,0,0,0,0,0,0,0,0,0,0,0,0,0,0,0,0,0,0,0,0,0,0,0,0,0,0,0,0,0,0,0,0,0,0,0,0,0,1,0,0,0,0,0,0,0,0,0,0,0,0,0,0,0,0,0,0,0,0,0,0,0,0,0,0,0,0,0,0,0,0,0,0,0,0,0,0,0,0,0,0,0,0,0,0,0,0,0,0,0,0,0,0,0,0,0,0,0,0,0,0,0,0,0,0,0,0,0,0,0,0,0,0,0,0,0,0,0,0,0,0,0,0,0,0,0,0,0,0,1,0,0,0,0,0,0,0,0,0,0,0,0,0,0,0,0,0,0,0,0,0,0,0,0,0,0,0,0,0,0,0,0,0,0,0,0,0,0,0,0,0,0,0,0,0,0,0,0,0,0,0,0,0,0,0,0,0,0,0,0,0,0,0,0,0,0,0,0,0,0,0,0,0,0,0,0,0,0,0,0,0,0,0,0,0,0,0,0,0,0,0,0,0,0,0,0,0,0,0,0,0,0,0,0,0,0,0,0,0,0,0,0,0,0,0,0,0,0,0,0,0,0,0,0,0,0,0,0,0,0,0,0,0,0,0,0,0,0,0,0,0,0,0,0,0,0,0,0,0,0,0,0,0,0,0,0,0,0,0,0,0,0,0,0,0,0,0,0,0,0,0,0,0,0,0,0,0,0,0,0,0,0,0,0,0,0,0,0,0,0,0,0,0,0,0,0,0,0,0,0,0,0,0,0,0,0,0,0,0,0,0,0,0,0,0,0,0,0,0,0,0,0,0,0,0,0,0,0,0,0,0,0,0,0,0,0,0,0,0,0,0,0,0,0,0,0,0,0,0,0,0,0,0,0,0,0,0,0,0,0,0,0,0,0,0,0,0,0,0,0,0,0,0,0,0,0,0,0,0,0,0,0,0,0,0,0,0,0,1,0,0,0,0,0,0,0,0,0,0,0,0,0,0,0,0,0,0,0,0],"sphere1":[1,3],"sphere2":[5,0],"atoms":[0,2,3,3]},"atomFeatures":{"sphere1":{"eF@HpP":1,"gJPLAHJPt`duU@@":1,"eFBBPcA@":3},"sphere2":{"gJPLAHJPt`duU@@":5}}},{"connectivityMatrix":[[8,2,0],[2,6,2],[0,2,8]],"smiles":"O=C=O","canonicSmiles":"O=C=O","targets":{"experimental":1474.855238},"predictedProperties":{"logP":-0.3668000102043152,"logS":-0.6299999728798866},"topologicalProperties":{"nbHBondAcceptors":2,"nbHBondDonors":0,"polarSurfaceArea":34.13999938964844,"nbRotatableBonds":0,"nbStereoCenters":0,"mass":44.0095457453718,"monoisotopicMass":43.98982923914,"charge":0,"mf":"CO2","atoms":{"C":1,"O":2},"unsaturation":2},"fingerprints":{"ocl":[0,0,0,0,1,0,0,0,0,0,0,0,0,0,0,0,0,0,0,0,0,0,0,0,1,0,0,0,1,0,0,0,0,0,0,0,0,0,0,0,0,0,0,0,0,0,0,0,0,0,0,0,0,0,0,0,0,0,0,0,0,0,0,0,0,0,0,0,0,0,0,0,0,0,0,0,0,0,0,0,0,0,0,0,0,0,0,0,0,0,0,0,0,0,0,0,0,0,0,0,0,0,0,0,0,0,0,0,0,0,0,0,0,0,0,0,0,0,0,0,0,0,0,0,0,0,0,0,0,0,0,0,0,0,0,0,0,0,0,0,0,0,0,0,0,0,0,0,0,0,0,0,0,0,0,0,0,0,0,0,0,0,0,0,0,0,0,0,0,0,0,0,0,0,0,0,0,0,0,0,0,0,0,0,0,0,0,0,0,0,0,0,0,0,0,0,0,0,0,0,0,0,0,0,0,0,0,0,0,0,0,0,0,0,0,0,0,0,0,0,0,0,0,0,0,0,0,0,0,0,0,0,0,0,0,0,0,0,0,0,0,0,0,0,0,0,0,0,0,0,0,0,0,0,0,0,0,0,0,0,0,0,0,0,0,0,0,0,0,0,0,0,0,0,0,0,0,0,0,0,0,0,0,0,0,0,0,0,0,0,0,0,0,0,0,0,0,0,0,0,0,0,0,0,0,0,0,0,0,0,0,0,0,0,0,0,0,0,0,0,0,0,0,0,0,0,0,0,0,0,0,0,0,0,0,0,0,0,0,0,0,0,0,0,0,0,0,0,0,0,0,0,0,0,0,0,0,0,0,0,0,0,0,0,0,0,0,0,0,0,0,0,0,0,0,0,0,0,0,0,0,0,0,0,0,0,0,0,0,0,0,0,0,0,0,0,0,0,0,0,0,0,0,0,0,0,0,0,0,0,0,0,0,0,0,0,0,0,0,0,0,0,0,0,0,0,0,0,0,0,0,1,0,0,0,0,0,0,0,0,0,0,0,0,0,0,0,0,0,0,0,0,0,0,0,0,0,0,0,0,0,0,0,0,0,0,0,0,0,0,0,0,0,0,0,0,0,0,0,0,0,0,0,0,0,0,0,0,0,0,0,0,0,0,0,0,0,0,0,0,0,0,0,0,0,0,0,0,0,0,0,0],"sphere1":[1,0],"sphere2":[3,0],"atoms":[2,1,0,0]},"atomFeatures":{"sphere1":{"eFHBJD":2,"eMDARU@":1},"sphere2":{"eMDARU@":3}}},{"connectivityMatrix":[[6,1,0,0,0,0,0,0,0,0,0,1,0,0,0,0,0,0,0,0,0,1,0,0,0,0,0,0,1],[1,6,1,0,0,0,1,0,0,0,1,0,0,0,0,0,0,0,0,0,0,0,0,0,0,0,0,0,0],[0,1,6,1,1,1,0,0,0,0,0,0,0,0,0,0,0,0,0,0,0,0,0,0,0,0,0,0,0],[0,0,1,9,0,0,0,0,0,0,0,0,0,0,0,0,0,0,0,0,0,0,0,0,0,0,0,0,0],[0,0,1,0,9,0,0,0,0,0,0,0,0,0,0,0,0,0,0,0,0,0,0,0,0,0,0,0,0],[0,0,1,0,0,9,0,0,0,0,0,0,0,0,0,0,0,0,0,0,0,0,0,0,0,0,0,0,0],[0,1,0,0,0,0,6,1,1,1,0,0,0,0,0,0,0,0,0,0,0,0,0,0,0,0,0,0,0],[0,0,0,0,0,0,1,9,0,0,0,0,0,0,0,0,0,0,0,0,0,0,0,0,0,0,0,0,0],[0,0,0,0,0,0,1,0,9,0,0,0,0,0,0,0,0,0,0,0,0,0,0,0,0,0,0,0,0],[0,0,0,0,0,0,1,0,0,9,0,0,0,0,0,0,0,0,0,0,0,0,0,0,0,0,0,0,0],[0,1,0,0,0,0,0,0,0,0,9,0,0,0,0,0,0,0,0,0,0,0,0,0,0,0,0,0,0],[1,0,0,0,0,0,0,0,0,0,0,6,1,0,0,0,1,0,0,0,1,0,0,0,0,0,0,0,0],[0,0,0,0,0,0,0,0,0,0,0,1,6,1,1,1,0,0,0,0,0,0,0,0,0,0,0,0,0],[0,0,0,0,0,0,0,0,0,0,0,0,1,9,0,0,0,0,0,0,0,0,0,0,0,0,0,0,0],[0,0,0,0,0,0,0,0,0,0,0,0,1,0,9,0,0,0,0,0,0,0,0,0,0,0,0,0,0],[0,0,0,0,0,0,0,0,0,0,0,0,1,0,0,9,0,0,0,0,0,0,0,0,0,0,0,0,0],[0,0,0,0,0,0,0,0,0,0,0,1,0,0,0,0,6,1,1,1,0,0,0,0,0,0,0,0,0],[0,0,0,0,0,0,0,0,0,0,0,0,0,0,0,0,1,9,0,0,0,0,0,0,0,0,0,0,0],[0,0,0,0,0,0,0,0,0,0,0,0,0,0,0,0,1,0,9,0,0,0,0,0,0,0,0,0,0],[0,0,0,0,0,0,0,0,0,0,0,0,0,0,0,0,1,0,0,9,0,0,0,0,0,0,0,0,0],[0,0,0,0,0,0,0,0,0,0,0,1,0,0,0,0,0,0,0,0,9,0,0,0,0,0,0,0,0],[1,0,0,0,0,0,0,0,0,0,0,0,0,0,0,0,0,0,0,0,0,6,1,0,0,0,1,1,0],[0,0,0,0,0,0,0,0,0,0,0,0,0,0,0,0,0,0,0,0,0,1,6,1,1,1,0,0,0],[0,0,0,0,0,0,0,0,0,0,0,0,0,0,0,0,0,0,0,0,0,0,1,9,0,0,0,0,0],[0,0,0,0,0,0,0,0,0,0,0,0,0,0,0,0,0,0,0,0,0,0,1,0,9,0,0,0,0],[0,0,0,0,0,0,0,0,0,0,0,0,0,0,0,0,0,0,0,0,0,0,1,0,0,9,0,0,0],[0,0,0,0,0,0,0,0,0,0,0,0,0,0,0,0,0,0,0,0,0,1,0,0,0,0,9,0,0],[0,0,0,0,0,0,0,0,0,0,0,0,0,0,0,0,0,0,0,0,0,1,0,0,0,0,0,9,0],[1,0,0,0,0,0,0,0,0,0,0,0,0,0,0,0,0,0,0,0,0,0,0,0,0,0,0,0,9]],"smiles":"C(C(C(F)(F)F)(C(F)(F)F)F)(C(C(F)(F)F)(C(F)(F)F)F)(C(C(F)(F)F)(F)F)F","canonicSmiles":"C(C(C(F)(F)F)(C(F)(F)F)F)(C(C(F)(F)F)(C(F)(F)F)F)(C(C(F)(F)F)(F)F)F","targets":{"experimental":0.00122},"predictedProperties":{"logP":5.65060031414032,"logS":-7.0880002081394196},"topologicalProperties":{"nbHBondAcceptors":0,"nbHBondDonors":0,"polarSurfaceArea":0,"nbRotatableBonds":8,"nbStereoCenters":0,"mass":488.0646863252172,"monoisotopicMass":487.9680632546,"charge":0,"mf":"C9F20","atoms":{"C":9,"F":20},"unsaturation":0},"fingerprints":{"ocl":[1,0,0,0,0,1,0,1,0,1,0,1,0,0,0,0,1,0,0,0,1,1,0,1,0,1,1,0,0,1,1,1,0,1,0,1,0,0,1,1,0,0,0,1,1,0,0,0,0,1,0,0,0,1,0,0,1,0,0,1,0,1,0,1,0,0,0,0,0,0,0,0,0,0,1,1,0,0,0,0,0,1,0,0,0,0,0,0,0,1,0,0,0,0,0,1,0,1,1,0,1,0,0,0,0,1,0,1,0,0,1,1,1,0,1,0,0,1,0,0,0,0,0,0,0,0,0,0,0,0,0,0,0,0,0,0,1,0,0,0,0,0,1,0,0,0,0,0,0,0,1,0,0,0,0,1,0,1,0,0,0,0,0,0,1,0,0,0,0,0,0,0,0,0,1,0,1,0,0,1,0,0,0,0,0,0,0,0,0,1,0,0,0,1,0,0,0,0,0,0,1,0,1,1,1,0,0,0,0,0,0,0,0,0,0,0,0,0,0,0,0,0,1,0,0,0,0,0,0,0,1,0,0,0,0,0,1,0,0,1,0,0,0,0,0,0,1,0,0,0,0,0,0,0,0,0,0,0,1,0,1,0,0,0,0,0,0,0,0,0,0,0,0,0,0,0,0,0,0,0,0,0,0,0,0,0,0,0,1,0,0,0,0,0,0,0,0,1,0,0,0,0,0,0,0,0,0,0,0,0,0,0,0,0,0,0,0,1,0,0,0,0,0,0,0,0,0,0,0,0,0,0,0,0,0,0,0,0,0,0,0,0,0,0,0,0,0,0,0,0,0,0,0,0,0,0,0,0,0,0,0,0,0,0,0,0,0,0,0,0,0,0,0,0,0,0,0,0,0,0,0,0,0,1,0,0,0,0,0,0,0,0,0,0,0,0,0,0,0,0,0,0,0,1,0,0,0,0,0,0,0,0,0,0,0,0,0,0,0,0,0,0,0,0,0,0,0,0,0,0,0,0,0,0,0,0,0,0,0,0,0,0,0,0,0,0,0,0,0,0,0,0,0,0,0,0,0,0,0,0,0,0,0,0,0,0,0,0,0,0,0,0,0,0,0,0,0,0,0,0,0,0,0,0,0,0,0,0,0,0,0,1,0,0,0,0,0,0,0,0,0,0,0,0,0,0,0,0,0,0,0,0],"sphere1":[1,20],"sphere2":[2,15],"atoms":[0,9,20,0]},"atomFeatures":{"sphere1":{"gJPHAHIMUPD":3,"gJPLAHJPt`duU@P":5,"eFBBPcA@":20,"gJPDAHJPRZj`H":1},"sphere2":{"dgl@h@dJdFdAdMdDffffjjjjh@`":1,"dgl@D@dDdLdJdAdIdEdMdLbdLfdTeUUUT@P":2,"dax@H@dDdLdJdLbdLeUT@P":4,"gJPLAHJPt`duU@P":15,"gJPHAHIMUPD":3,"dmT@X@dDdLdJdFdAdLbdLadjjj`B":1,"dax@h@dDdLdJdFdLbdLeUT@P":1,"gJPDAHJPRZj`H":2}}},{"connectivityMatrix":[[6,1,0,0,0,1,0,0,0,1,1],[1,6,1,1,1,0,0,0,0,0,0],[0,1,9,0,0,0,0,0,0,0,0],[0,1,0,9,0,0,0,0,0,0,0],[0,1,0,0,9,0,0,0,0,0,0],[1,0,0,0,0,6,1,1,1,0,0],[0,0,0,0,0,1,9,0,0,0,0],[0,0,0,0,0,1,0,9,0,0,0],[0,0,0,0,0,1,0,0,9,0,0],[1,0,0,0,0,0,0,0,0,9,0],[1,0,0,0,0,0,0,0,0,0,9]],"smiles":"C(C(F)(F)F)(C(F)(F)F)(F)F","canonicSmiles":"C(C(F)(F)F)(C(F)(F)F)(F)F","targets":{"experimental":5.7},"predictedProperties":{"logP":2.6548001170158386,"logS":-3.182000070810318},"topologicalProperties":{"nbHBondAcceptors":0,"nbHBondDonors":0,"polarSurfaceArea":0,"nbRotatableBonds":2,"nbStereoCenters":0,"mass":188.01943299204575,"monoisotopicMass":187.98722530184,"charge":0,"mf":"C3F8","atoms":{"C":3,"F":8},"unsaturation":0},"fingerprints":{"ocl":[1,0,0,0,0,1,0,0,0,1,0,1,0,0,0,0,0,0,0,0,1,1,0,1,0,1,1,0,0,1,1,1,0,0,0,0,0,0,1,0,0,0,0,0,0,0,0,0,0,1,0,0,0,1,0,0,0,0,0,0,0,1,0,0,0,0,0,0,0,0,0,0,0,0,0,0,0,0,0,0,0,1,0,0,0,0,0,0,0,0,0,0,0,0,0,1,0,0,0,0,0,0,0,0,0,0,0,0,0,0,1,1,0,0,0,0,0,0,0,0,0,0,0,0,0,0,0,0,0,0,0,0,0,0,0,0,0,0,0,0,0,0,0,0,0,0,0,0,0,0,1,0,0,0,0,0,0,0,0,0,0,0,0,0,0,0,0,0,0,0,0,0,0,0,0,0,1,0,0,1,0,0,0,0,0,0,0,0,0,0,0,0,0,0,0,0,0,0,0,0,1,0,1,0,0,0,0,0,0,0,0,0,0,0,0,0,0,0,0,0,0,0,0,0,0,0,0,0,0,0,0,0,0,0,0,0,1,0,0,0,0,0,0,0,0,0,0,0,0,0,0,0,0,0,0,0,0,0,0,0,0,0,0,0,0,0,0,0,0,0,0,0,0,0,0,0,0,0,0,0,0,0,0,0,0,0,0,0,0,0,0,0,0,0,0,0,0,1,0,0,0,0,0,0,0,0,0,0,0,0,0,0,0,0,0,0,0,1,0,0,0,0,0,0,0,0,0,0,0,0,0,0,0,0,0,0,0,0,0,0,0,0,0,0,0,0,0,0,0,0,0,0,0,0,0,0,0,0,0,0,0,0,0,0,0,0,0,0,0,0,0,0,0,0,0,0,0,0,0,0,0,0,0,1,0,0,0,0,0,0,0,0,0,0,0,0,0,0,0,0,0,0,0,0,0,0,0,0,0,0,0,0,0,0,0,0,0,0,0,0,0,0,0,0,0,0,0,0,0,0,0,0,0,0,0,0,0,0,0,0,0,0,0,0,0,0,0,0,0,0,0,0,0,0,0,0,0,0,0,0,0,0,0,0,0,0,0,0,0,0,0,0,0,0,0,0,0,0,0,0,0,0,0,0,0,0,0,0,0,0,0,1,0,0,0,0,0,0,0,0,0,0,0,0,0,0,0,0,0,0,0,0],"sphere1":[2,8],"sphere2":[2,6],"atoms":[0,3,8,0]},"atomFeatures":{"sphere1":{"gJPDAHJPRZj`H":1,"gJPLAHJPt`duU@P":2,"eFBBPcA@":8},"sphere2":{"dmT@D@dDdLdJdFdAdIdEdLbdLadjjj`@":1,"dax@h@dDdLdJdFdLbdLeUT@P":2,"gJPLAHJPt`duU@P":6,"gJPDAHJPRZj`H":2}}},{"connectivityMatrix":[[6,1,0,0,0,0],[1,6,1,0,0,0],[0,1,7,1,1,0],[0,0,1,6,0,0],[0,0,1,0,6,1],[0,0,0,0,1,6]],"smiles":"CCN(C)CC","canonicSmiles":"CCN(C)CC","targets":{"experimental":1000000},"predictedProperties":{"logP":0.6769999265670776,"logS":-0.40699998289346695},"topologicalProperties":{"nbHBondAcceptors":1,"nbHBondDonors":0,"polarSurfaceArea":3.240000009536743,"nbRotatableBonds":2,"nbStereoCenters":0,"mass":87.16361249784714,"monoisotopicMass":87.10479942342,"charge":0,"mf":"C5H13N","atoms":{"C":5,"H":13,"N":1},"unsaturation":0},"fingerprints":{"ocl":[0,0,0,1,0,1,1,0,0,0,0,0,0,0,0,1,0,0,0,0,0,1,1,0,0,1,0,1,0,1,1,1,0,0,0,0,0,0,0,0,1,0,0,0,0,0,0,0,0,0,0,0,0,0,1,0,0,0,0,0,1,0,0,0,1,0,0,0,0,0,0,0,0,0,0,0,0,0,0,0,0,0,0,0,0,0,0,0,0,0,0,0,0,0,1,0,0,0,0,0,0,0,0,0,0,0,0,0,1,0,0,0,0,0,0,0,0,0,0,0,0,0,0,0,0,0,0,0,0,0,0,0,0,0,0,0,0,0,0,0,0,0,0,0,0,0,0,0,0,0,0,0,0,1,0,0,0,0,0,0,0,0,0,1,0,0,0,0,0,0,0,0,0,0,0,0,0,0,0,0,0,0,0,0,0,0,0,0,0,0,0,0,0,0,0,0,0,0,0,0,0,0,0,0,0,0,0,0,0,0,0,0,0,0,0,0,0,0,0,0,0,0,0,0,0,0,0,0,0,0,0,0,0,0,0,0,0,0,0,0,0,0,0,0,0,0,0,0,0,0,0,0,0,0,0,0,0,0,0,0,0,0,0,0,0,0,0,0,0,0,0,0,0,0,0,0,0,0,0,0,0,0,0,0,0,0,0,0,0,0,0,0,0,0,0,0,0,0,0,0,0,0,0,0,0,0,0,0,0,0,0,0,0,0,0,0,0,0,0,0,0,0,0,0,0,0,0,0,0,0,0,0,0,0,0,0,0,0,0,0,0,0,0,0,0,0,0,0,0,0,0,0,0,0,0,0,0,0,0,0,0,0,0,0,0,0,0,0,0,0,0,0,0,0,0,0,0,0,0,0,0,0,0,0,0,0,0,0,0,0,0,0,0,0,0,0,0,0,0,0,0,0,0,0,0,0,0,0,0,0,0,0,0,0,0,0,0,0,0,0,0,0,0,0,0,0,0,0,0,0,0,0,0,0,0,0,0,0,0,0,0,0,0,0,0,0,0,0,0,0,0,0,0,0,0,0,0,0,0,0,0,0,0,0,0,0,0,0,0,0,0,0,0,0,0,0,0,0,0,0,0,0,0,0,0,0,0,0,0,0,0,0,0,0,0,0,0,0,0,0,0,0,0,0,0,0,0,0,0,0,0,0],"sphere1":[1,0],"sphere2":[1,0],"atoms":[1,5,0,13]},"atomFeatures":{"sphere1":{"eF@HpP":2,"eM`AIhH":2,"gCh@AGj@`":1,"eF`BLD":1},"sphere2":{"eM`AIhH":2,"gJX@@eSU@P":2,"gGX@@eRuT@@":1,"gCh@AGj@`":1}}}],"fingerprintInfo":{"sphere1AtomFeature":[{"label":"undefined","counter":31},{"label":"eFBBPcA@","counter":47}],"sphere2AtomFeature":[{"label":"undefined","counter":48},{"label":"gJPLAHJPt`duU@P","counter":30}],"atoms":[{"label":"undefined","counter":4},{"label":"C","counter":27},{"label":"F","counter":47},{"label":"H","counter":21}]},"dir":"somas","newFilename":"data.json","meta":{"name":"somas","smiles_col":"SMILES","task":"regression","description":"Experimental and calculated solubilities for small molecules.\nOriginally proposed for the design of redox-flow batteries.\n","targets":[{"name":"Experimental Solubility in Water","alias":"experimental","description":"Experimental solubility in water","units":"mg/mL"},{"name":"Solvation Energy","description":"COSMO based solvation energy by DFT calculation","units":"kJ/mol"},{"name":"Dipole Moment","description":"Dipole moment of the molecule (DFT, PBE0 6–31 G**)","units":"Debye"},{"name":"Molecular Volume","description":"Molecular volume of the molecule (DFT, PBE0 6–31 G**)","units":"A^3"},{"name":"Molecular Surface Area","description":"Molecular surface area of the molecule (DFT, PBE0 6–31 G**)","units":"A^2"},{"name":"HOMO","description":"Highest occupied molecular orbital energy (DFT, PBE0 6–31 G**)","units":"eV"},{"name":"LUMO","description":"Lowest unoccupied molecular orbital energy (DFT, PBE0 6–31 G**)","units":"eV"},{"name":"gap","description":"HOMO-LUMO gap (DFT, PBE0 6–31 G**)","units":"eV"},{"name":"QXX","description":"quadrupole moment of the molecule (DFT, PBE0 6–31 G**)","units":"Debye^2"},{"name":"QYY","description":"quadrupole moment of the molecule (DFT, PBE0 6–31 G**)","units":"Debye^2"},{"name":"QZZ","description":"quadrupole moment of the molecule (DFT, PBE0 6–31 G**)","units":"Debye^2"}],"info":[{"name":"Temperature","description":"Temperature of the experiment","units":"K"}],"identifiers":[{"name":"CASRN","description":"CAS Registry Number"}],"license":"CC BY 4.0","links":[{"name":"dataset","url":"https://doi.org/10.6084/m9.figshare.14552697","description":"Original dataset"}],"bibtex":["\"@article{Gao_2022,\ndoi = {10.1038/s41597-022-01814-4},\nurl = {https://doi.org/10.1038%2Fs41597-022-01814-4},\nyear = 2022,\nmonth = {dec},\npublisher = {Springer Science and Business Media {LLC}},\nvolume = {9},\nnumber = {1},\nauthor = {Peiyuan Gao and Amity Andersen and Jonathan Sepulveda and Gihan U. Panapitiya and Aaron Hollas and Emily G. Saldanha and Vijayakumar Murugesan and Wei Wang},\ntitle = {{SOMAS}: a platform for data-driven material discovery in redox flow battery development},\njournal = {Sci Data}\n}\"\n"]}}