compound,flashpoint,pure substance,smiles,source,is_silicon,is_metallic,is_tin,is_acid,data type
hept-2-yne,281.15,1,CC#CCCCC,le15,0,0,0,0,randonly selected as training point or test point
1-methylcyclohexene,269.25,1,CC1=CCCCC1,le15,0,0,0,0,randonly selected as training point or test point
hept-1-yne,271.15,1,C#CCCCCC,le15,0,0,0,0,randonly selected as training point or test point
"2,4-dimethylpenta-1,3-diene",283.15,1,C=C(C)C=C(C)C,le15,0,0,0,0,randonly selected as training point or test point
methylidenecyclohexane,266.45,1,C=C1CCCCC1,le15,0,0,0,0,randonly selected as training point or test point
ethylidenecyclopentane,275.85,1,CC=C1CCCC1,le15,0,0,0,0,randonly selected as training point or test point
"hepta-1,2-diene",275.35,1,C=C=CCCCC,le15,0,0,0,0,randonly selected as training point or test point
hept-3-yne,278.45,1,CCC#CCCC,le15,0,0,0,0,randonly selected as training point or test point
1heptyne,271.0,1,C#CCCCCC,le15,0,0,0,0,randonly selected as training point or test point
1methylcyclohexene,270.0,1,CC1=CCCCC1,le15,0,0,0,0,randonly selected as training point or test point
Methylenecyclohexane,267.0,1,C=C1CCCCC1,le15,0,0,0,0,randonly selected as training point or test point
"Methane, chloro(methylthio)- (9CI)",290.35,1,CSCCl,le15,0,0,0,0,randonly selected as training point or test point
2-chloroethanethiol,304.05,1,SCCCl,le15,0,0,0,0,randonly selected as training point or test point
"1,1-Dichloroethene (9CI)",248.15,1,C=C(Cl)Cl,le15,0,0,0,0,randonly selected as training point or test point
"Ethene, 1,2-dichloro-, (E)- (9CI)",279.25,1,Cl/C=C/Cl,le15,0,0,0,0,randonly selected as training point or test point
"Ethylene, 1,2-dichloro-",279.25,1,ClC=CCl,le15,0,0,0,0,randonly selected as training point or test point
"1H-Pyrrole-2,5-dione",409.75,1,O=C1C=CC(=O)N1,le15,0,0,0,0,randonly selected as training point or test point
"Pyridine, 3-fluoro- (8CI)(9CI)",286.483,1,Fc1cccnc1,le15,0,0,0,0,randonly selected as training point or test point
"Pyridine, 2-fluoro-",301.483,1,Fc1ccccn1,le15,0,0,0,0,randonly selected as training point or test point
4-fluoropyridine,295.95,1,Fc1ccncc1,le15,0,0,0,0,randonly selected as training point or test point
"3,5-dimethyl-1,2-oxazole",304.25,1,Cc1cc(C)on1,le15,0,0,0,0,randonly selected as training point or test point
furan-2-ylmethanamine,319.85,1,NCc1ccco1,le15,0,0,0,0,randonly selected as training point or test point
"2,4-dimethyl-1,3-oxazole",307.65,1,Cc1coc(C)n1,le15,0,0,0,0,randonly selected as training point or test point
"2,5-dimethyl-1,3-oxazole",303.15,1,Cc1cnc(C)o1,le15,0,0,0,0,randonly selected as training point or test point
"2-Propen-1-amine, N-2-propenyl-",288.75,1,C=CCNCC=C,le15,0,0,0,0,randonly selected as training point or test point
"Pentanenitrile, 4-methyl-",318.75,1,CC(C)CCC#N,le15,0,0,0,0,randonly selected as training point or test point
"Phosphonofluoridic acid, methyl-",318.75,1,CP(=O)(O)F,le15,0,0,0,1,randonly selected as training point or test point
"furan-2,5-dione",376.45,1,O=C1C=CC(=O)O1,le15,0,0,0,0,randonly selected as training point or test point
Furfuryl alcohol,338.15,1,OCc1ccco1,le15,0,0,0,0,randonly selected as training point or test point
Methanesulphonyl fluoride,301.65,1,CS(=O)(=O)F,le15,0,0,0,0,randonly selected as training point or test point
"2(3H)-Furanone, 5-methyl-",341.15,1,CC1=CCC(=O)O1,le15,0,0,0,0,randonly selected as training point or test point
ethyl prop-2-ynoate,296.15,1,C#CC(=O)OCC,le15,0,0,0,0,randonly selected as training point or test point
"Acrylic acid, vinyl ester (6CI,7CI,8CI)",286.65,1,C=COC(=O)C=C,le15,0,0,0,1,randonly selected as training point or test point
Furan-3-methanol,311.45,1,OCc1ccoc1,le15,0,0,0,0,randonly selected as training point or test point
2-methoxyfuran,283.15,1,COc1ccco1,le15,0,0,0,0,randonly selected as training point or test point
Furfurylalcohol,338.0,1,OCc1ccco1,le15,0,0,0,0,randonly selected as training point or test point
"3,4-dimethyl-1,2,5-oxadiazole",308.65,1,Cc1nonc1C,le15,0,0,0,0,randonly selected as training point or test point
"Ethanimidic acid, N-cyano-, methyl ester",292.05,1,COC(C)=NC#N,le15,0,0,0,1,randonly selected as training point or test point
Cyclohexanone,317.15,1,O=C1CCCCC1,le15,0,0,0,0,randonly selected as training point or test point
3-Hexyn-2-ol,326.45,1,CCC#CC(C)O,le15,0,0,0,0,randonly selected as training point or test point
"2,4-Hexadien-1-ol",345.35,1,CC=CC=CCO,le15,0,0,0,0,randonly selected as training point or test point
"3-Penten-2-one, 4-methyl-",303.75,1,CC(=O)C=C(C)C,le15,0,0,0,0,randonly selected as training point or test point
7-Oxabicyclo(4.1.0)heptane,300.35,1,C1CCC2OC2C1,le15,0,0,0,0,randonly selected as training point or test point
"1-Propene, 3,3'-oxybis-",266.15,1,C=CCOCC=C,le15,0,0,0,0,randonly selected as training point or test point
"1-Pentyn-3-ol, 4-methyl-",315.05,1,C#CC(O)C(C)C,le15,0,0,0,0,randonly selected as training point or test point
Hex-2-yn-1-ol,340.95,1,CCCC#CCO,le15,0,0,0,0,randonly selected as training point or test point
3-Cyclohexen-1-ol,326.55,1,OC1CC=CCC1,le15,0,0,0,0,randonly selected as training point or test point
cyclopentanecarbaldehyde,309.15,1,O=CC1CCCC1,le15,0,0,0,0,randonly selected as training point or test point
"Hexa-1,5-dien-3-ol",302.55,1,C=CCC(O)C=C,le15,0,0,0,0,randonly selected as training point or test point
3-Hexyn-1-ol,336.45,1,CCC#CCCO,le15,0,0,0,0,randonly selected as training point or test point
2-methylcyclopentan-1-one,305.85,1,CC1CCCC1=O,le15,0,0,0,0,randonly selected as training point or test point
(E)-hex-4-en-3-one,307.55,1,C/C=C/C(=O)CC,le15,0,0,0,0,randonly selected as training point or test point
"2-Hexenal, (2E)-",308.15,1,CCC/C=C/C=O,le15,0,0,0,0,randonly selected as training point or test point
"3-Hexenal, (3Z)-",333.15,1,CC/C=C\CC=O,le15,0,0,0,0,randonly selected as training point or test point
"4-methyl-3,6-dihydro-2H-pyran",287.45,1,CC1=CCOCC1,le15,0,0,0,0,randonly selected as training point or test point
"1-Pentyn-3-ol, 3-methyl-",302.15,1,C#CC(C)(O)CC,le15,0,0,0,0,randonly selected as training point or test point
5-Hexen-2-one,297.05,1,C=CCCC(C)=O,le15,0,0,0,0,randonly selected as training point or test point
5-Hexyn-1-ol,343.15,1,C#CCCCCO,le15,0,0,0,0,randonly selected as training point or test point
"Pentanal, 2-methylene- (9CI)",302.25,1,C=C(C=O)CCC,le15,0,0,0,0,randonly selected as training point or test point
1-cyclobutylethanone,305.45,1,CC(=O)C1CCC1,le15,0,0,0,0,randonly selected as training point or test point
CyclohexeneOxide,297.0,1,C1CCC2OC2C1,le15,0,0,0,0,randonly selected as training point or test point
Mesityloxide,305.0,1,Cc1cc(C)c(Oc2c(C)cc(C)cc2C)c(C)c1,le15,0,0,0,0,randonly selected as training point or test point
"Propanenitrile, 3-(dimethylamino)-",335.15,1,CN(C)CCC#N,le15,0,0,0,0,randonly selected as training point or test point
"Butanenitrile, 2-amino-2-methyl-",343.85,1,CCC(C)(N)C#N,le15,0,0,0,0,randonly selected as training point or test point
Diethylcyanamide,342.0,1,CCN(C#N)CC,le15,0,0,0,0,randonly selected as training point or test point
2methylthiophene,280.0,1,Cc1cccs1,le15,0,0,0,0,randonly selected as training point or test point
cycloheptane,279.25,1,C1CCCCCC1,le15,0,0,0,0,randonly selected as training point or test point
3-ethylpent-2-ene,309.15,1,CC=C(CC)CC,le15,0,0,0,0,randonly selected as training point or test point
ethylcyclopentane,288.75,1,CCC1CCCC1,le15,0,0,0,0,randonly selected as training point or test point
1heptene,265.0,1,C=CCCCCC,le15,0,0,0,0,randonly selected as training point or test point
2methyl1hexene,267.0,1,C=C(C)CCCC,le15,0,0,0,0,randonly selected as training point or test point
Cycloheptane,279.0,1,C1CCCCCC1,le15,0,0,0,0,randonly selected as training point or test point
Ethylcyclopentane,288.0,1,CCC1CCCC1,le15,0,0,0,0,randonly selected as training point or test point
"2,2,2-trifluoroethanamine",257.15,1,NCC(F)(F)F,le15,0,0,0,0,randonly selected as training point or test point
methyl 2-cyanoacetate,315.85,1,COC(=O)CC#N,le15,0,0,0,0,randonly selected as training point or test point
"2,5-Pyrrolidinedione",433.15,1,O=C1CCC(=O)N1,le15,0,0,0,0,randonly selected as training point or test point
ethyl cyanoformate,297.55,1,CCOC(=O)C#N,le15,0,0,0,0,randonly selected as training point or test point
5-methylpyrrolidin-2-one,400.65,1,CC1CCC(=O)N1,le15,0,0,0,0,randonly selected as training point or test point
"Isocyanic acid, butyl ester",290.95,1,CCCCN=C=O,le15,0,0,0,1,randonly selected as training point or test point
piperidin-2-one,406.25,1,O=C1CCCCN1,le15,0,0,0,0,randonly selected as training point or test point
1-isocyanato-2-methylpropane,290.25,1,CC(C)CN=C=O,le15,0,0,0,0,randonly selected as training point or test point
"Propionitrile, 3-ethoxy- (8CI)",337.05,1,CCOCCC#N,le15,0,0,0,0,randonly selected as training point or test point
"Acetamide, N-ethenyl-N-methyl-",336.05,1,C=CN(C)C(C)=O,le15,0,0,0,0,randonly selected as training point or test point
"Crotonamide, 3-methyl-",364.35,1,CC(C)=CC(N)=O,le15,0,0,0,0,randonly selected as training point or test point
"2-Pyrrolidinone, 1-methyl-",364.15,1,CN1CCCC1=O,le15,0,0,0,0,randonly selected as training point or test point
"2-Propenamide, N,N-dimethyl-",344.85,1,C=CC(=O)N(C)C,le15,0,0,0,0,randonly selected as training point or test point
1methyl2pyrrolidinone,359.0,1,CN1CCCC1=O,le15,0,0,0,0,randonly selected as training point or test point
2ethyloxazoline,302.0,1,CCC1=NCCO1,le15,0,0,0,0,randonly selected as training point or test point
"Isothiocyanic acid, allyl ester",309.45,1,C=CCN=C=S,le15,0,0,0,1,randonly selected as training point or test point
"2-methyl-1,3-thiazole",302.05,1,Cc1nccs1,le15,0,0,0,0,randonly selected as training point or test point
"4-methyl-1,3-thiazole",305.15,1,Cc1cscn1,le15,0,0,0,0,randonly selected as training point or test point
2-methylpiperidine,289.15,1,CC1CCCCN1,le15,0,0,0,0,randonly selected as training point or test point
"1H-Azepine, hexahydro-",291.15,1,C1CCCNCC1,le15,0,0,0,0,randonly selected as training point or test point
4-methylpiperidine,280.35,1,CC1CCNCC1,le15,0,0,0,0,randonly selected as training point or test point
"Piperidine, 1-methyl-",276.45,1,CN1CCCCC1,le15,0,0,0,0,randonly selected as training point or test point
1-ethylpyrrolidine,274.75,1,CCN1CCCC1,le15,0,0,0,0,randonly selected as training point or test point
"Allylamine, N-ethyl-2-methyl- (6CI,8CI)",280.35,1,C=C(C)CNCC,le15,0,0,0,0,randonly selected as training point or test point
"Cyclopentylamine, 1-methyl- (6CI)",282.35,1,CC1(N)CCCC1,le15,0,0,0,0,randonly selected as training point or test point
Cyclohexylamine,300.0,1,NC1CCCCC1,le15,0,0,0,0,randonly selected as training point or test point
"Ethanol, 2,2,2-trifluoro-",302.55,1,OCC(F)(F)F,le15,0,0,0,0,randonly selected as training point or test point
"2-Propenoic acid, 2-methyl-, methyl ester",283.15,1,C=C(C)C(=O)OC,le15,0,0,0,1,randonly selected as training point or test point
"1-Propen-2-ol, acetate",286.05,1,C=C(C)OC(C)=O,le15,0,0,0,0,randonly selected as training point or test point
"2(3H)-Furanone, dihydro-5-methyl-",348.13,1,CC1CCC(=O)O1,le15,0,0,0,0,randonly selected as training point or test point
Glutaraldehyde,339.15,1,O=CCCCC=O,le15,0,0,0,0,randonly selected as training point or test point
"2,4-Pentanedione",316.25,1,CC(=O)CC(C)=O,le15,0,0,0,0,randonly selected as training point or test point
"2-Propenoic acid, ethyl ester",288.706,1,C=CC(=O)OCC,le15,0,0,0,1,randonly selected as training point or test point
"2-Butenoic acid, 3-methyl-",369.15,1,CC(C)=CC(=O)O,le15,0,0,0,1,randonly selected as training point or test point
(Z)-2-methylbut-2-enoic acid,369.05,1,C/C=C(/C)C(=O)O,le15,0,0,0,1,randonly selected as training point or test point
4-Pentenoic acid,362.15,1,C=CCCC(=O)O,le15,0,0,0,1,randonly selected as training point or test point
"Acetic acid, 2-propenyl ester",279.85,1,C=CCOC(C)=O,le15,0,0,0,1,randonly selected as training point or test point
"2,3-Pentanedione",292.85,1,CCC(=O)C(C)=O,le15,0,0,0,0,randonly selected as training point or test point
"2-Butenoic acid, methyl ester, (2E)-",277.15,1,C/C=C/C(=O)OC,le15,0,0,0,1,randonly selected as training point or test point
alpha-Methyl-gamma-butyrolactone,348.15,1,CC1CCOC1=O,le15,0,0,0,0,randonly selected as training point or test point
cyclobutanecarboxylic acid,356.15,1,O=C(O)C1CCC1,le15,0,0,0,1,randonly selected as training point or test point
"2-Vinyl-1,3-dioxolane",294.15,1,C=CC1OCCO1,le15,0,0,0,0,randonly selected as training point or test point
2-methylcyclopropane-1-carboxylic acid,360.95,1,CC1CC1C(=O)O,le15,0,0,0,1,randonly selected as training point or test point
oxan-2-one,354.15,1,O=C1CCCCO1,le15,0,0,0,0,randonly selected as training point or test point
methyl cyclopropanecarboxylate,290.15,1,COC(=O)C1CC1,le15,0,0,0,0,randonly selected as training point or test point
oxan-4-one,336.75,1,O=C1CCOCC1,le15,0,0,0,0,randonly selected as training point or test point
Allylacetate,279.0,1,C=CCCC(=O)[O-],le15,0,0,0,0,randonly selected as training point or test point
gammaValerolactone,354.0,1,CC1CCC(=O)O1,le15,0,0,0,0,randonly selected as training point or test point
MethylCyclopropanecarboxylate,290.0,1,COC(=O)C1CC1,le15,0,0,0,0,randonly selected as training point or test point
MethylMethacrylate,283.0,1,C=C(C)C(=O)OC,le15,0,0,0,0,randonly selected as training point or test point
"Urea, N-2-propen-1-yl-",328.45,1,C=CCNC(N)=O,le15,0,0,0,0,randonly selected as training point or test point
"Pyrrolidine, 1-nitroso-",356.45,1,O=NN1CCCC1,le15,0,0,0,0,randonly selected as training point or test point
"2-Propen-1-amine, N-methyl-N-nitroso- (9CI)",338.95,1,C=CCN(C)N=O,le15,0,0,0,0,randonly selected as training point or test point
"2-Butanone, 3,3-dimethyl-",297.05,1,CC(=O)C(C)(C)C,le15,0,0,0,0,randonly selected as training point or test point
"2-Pentanone, 4-methyl-",286.45,1,CC(=O)CC(C)C,le15,0,0,0,0,randonly selected as training point or test point
Cyclohexanol,340.92800000000005,1,OC1CCCCC1,le15,0,0,0,0,randonly selected as training point or test point
"Valeraldehyde, 2-methyl- (8CI)",289.85,1,CCCC(C)C=O,le15,0,0,0,0,randonly selected as training point or test point
(E)-hex-3-en-1-ol,317.55,1,CC/C=C/CCO,le15,0,0,0,0,randonly selected as training point or test point
3-methylpentan-2-one,285.15,1,CCC(C)C(C)=O,le15,0,0,0,0,randonly selected as training point or test point
2-methylpentan-3-one,283.95,1,CCC(=O)C(C)C,le15,0,0,0,0,randonly selected as training point or test point
3-Hexanone,296.15,1,CCCC(=O)CC,le15,0,0,0,0,randonly selected as training point or test point
2-Hexanone,296.15,1,CCCCC(C)=O,le15,0,0,0,0,randonly selected as training point or test point
oxepane,287.35,1,C1CCCOCC1,le15,0,0,0,0,randonly selected as training point or test point
Hex-5-en-1-ol,320.35,1,C=CCCCCO,le15,0,0,0,0,randonly selected as training point or test point
"1-Penten-3-ol, 3-methyl-",299.15,1,C=CC(C)(O)CC,le15,0,0,0,0,randonly selected as training point or test point
"4-Hexen-1-ol, (4E)-",334.25,1,C/C=C/CCCO,le15,0,0,0,0,randonly selected as training point or test point
(Z)-hex-2-en-1-ol,334.85,1,CCC/C=C\CO,le15,0,0,0,0,randonly selected as training point or test point
"3-Hexen-1-ol, (3Z)-",317.15,1,CC/C=C\CCO,le15,0,0,0,0,randonly selected as training point or test point
"3-Hexen-1-ol, (3E)-",317.55,1,CC/C=C/CCO,le15,0,0,0,0,randonly selected as training point or test point
"Valeraldehyde, 4-methyl-",290.95,1,CC(C)CCC=O,le15,0,0,0,0,randonly selected as training point or test point
"Furan, tetrahydrodimethyl-",277.65,1,CC1(C)CCCO1,le15,0,0,0,0,randonly selected as training point or test point
"Oxirane, butyl- (9CI)",294.95,1,CCCCC1CO1,le15,0,0,0,0,randonly selected as training point or test point
"2-Penten-1-ol, 2-methyl-",333.95,1,CCC=C(C)CO,le15,0,0,0,0,randonly selected as training point or test point
"3,3-Dimethylbutyraldehyde",283.75,1,CC(C)(C)CC=O,le15,0,0,0,0,randonly selected as training point or test point
cyclopentylmethanol,335.35,1,OCC1CCCC1,le15,0,0,0,0,randonly selected as training point or test point
1-Hexen-3-ol,308.15,1,C=CC(O)CCC,le15,0,0,0,0,randonly selected as training point or test point
3-methylpentanal,290.95,1,CCC(C)CC=O,le15,0,0,0,0,randonly selected as training point or test point
3-methylcyclopentan-1-ol,328.15,1,CC1CCC(O)C1,le15,0,0,0,0,randonly selected as training point or test point
"(1R,2S)-2-methylcyclopentan-1-ol",320.35,1,C[C@H]1CCC[C@H]1O,le15,0,0,0,0,randonly selected as training point or test point
2-methylpent-3-en-2-ol,297.35,1,CC=CC(C)(C)O,le15,0,0,0,0,randonly selected as training point or test point
Hexaldehyde,305.15,1,CCCCCC=O,le15,0,0,0,0,randonly selected as training point or test point
"Butyraldehyde, 2-ethyl-",294.25,1,CCC(C=O)CC,le15,0,0,0,0,randonly selected as training point or test point
"2-Hexen-1-ol, (2E)-",327.15,1,CCC/C=C/CO,le15,0,0,0,0,randonly selected as training point or test point
"Oxirane, 3-ethyl-2,2-dimethyl-",277.45,1,CCC1OC1(C)C,le15,0,0,0,0,randonly selected as training point or test point
1-methylcyclopentan-1-ol,313.75,1,CC1(O)CCCC1,le15,0,0,0,0,randonly selected as training point or test point
2ethylbutanal,294.0,1,CCC(C=O)CC,le15,0,0,0,0,randonly selected as training point or test point
2methyl3pentanone,286.0,1,CCC(=O)C(C)C,le15,0,0,0,0,randonly selected as training point or test point
3hexanone,287.0,1,CCCC(=O)CC,le15,0,0,0,0,randonly selected as training point or test point
3methyl2pentanone,285.0,1,CCC(C)C(C)=O,le15,0,0,0,0,randonly selected as training point or test point
5hexen1ol,320.0,1,C=CCCCCO,le15,0,0,0,0,randonly selected as training point or test point
Butylvinylether,264.0,1,C=COCCCC,le15,0,0,0,0,randonly selected as training point or test point
Hexanal,305.0,1,CCCCCC=O,le15,0,0,0,0,randonly selected as training point or test point
MethylIsobutylKetone,287.0,1,CC(=O)CC(C)C,le15,0,0,0,0,randonly selected as training point or test point
Pinacolone,278.0,1,CC(=O)C(C)(C)C,le15,0,0,0,0,randonly selected as training point or test point
"Piperazine, 1-methyl-",315.35,1,CN1CCNCC1,le15,0,0,0,0,randonly selected as training point or test point
"1H-1,4-Diazepine, hexahydro-",337.55,1,C1CNCCNC1,le15,0,0,0,0,randonly selected as training point or test point
piperidin-1-amine,309.25,1,NN1CCCCC1,le15,0,0,0,0,randonly selected as training point or test point
"1,2-Diethyldiaziridine",275.75,1,CCN1CN1CC,le15,0,0,0,0,randonly selected as training point or test point
"Piperazine, 2-methyl-",318.25,1,CC1CNCCN1,le15,0,0,0,0,randonly selected as training point or test point
"2,4-dimethylpentane",260.95,1,CC(C)CC(C)C,le15,0,0,0,0,randonly selected as training point or test point
Heptane,272.05,1,CCCCCCC,le15,0,0,0,0,randonly selected as training point or test point
2methylhexane,270.0,1,CCCCC(C)C,le15,0,0,0,0,randonly selected as training point or test point
3methylhexane,270.0,1,CCCC(C)CC,le15,0,0,0,0,randonly selected as training point or test point
"2,3-Butanedione, monooxime",458.65,1,CC(=O)C(C)=NO,le15,0,0,0,0,randonly selected as training point or test point
N-acetylacetamide,374.95,1,CC(=O)NC(C)=O,le15,0,0,0,0,randonly selected as training point or test point
"2-Propenamide, N-(hydroxymethyl)-",419.35,1,C=CC(=O)NCO,le15,0,0,0,0,randonly selected as training point or test point
"1,3,4-Thiadiazole, 2-amino-",371.45,1,Nc1nncs1,le15,0,0,0,0,randonly selected as training point or test point
3-methylbutanamide,367.25,1,CC(C)CC(N)=O,le15,0,0,0,0,randonly selected as training point or test point
"Formamide, N,N-diethyl-",333.15,1,CCN(C=O)CC,le15,0,0,0,0,randonly selected as training point or test point
(NZ)-N-pentan-2-ylidenehydroxylamine,351.15,1,CCC/C(C)=N\O,le15,0,0,0,0,randonly selected as training point or test point
pentanamide,367.45,1,CCCCC(N)=O,le15,0,0,0,0,randonly selected as training point or test point
"N,N-dimethylpropanamide",338.95,1,CCC(=O)N(C)C,le15,0,0,0,0,randonly selected as training point or test point
N-tert-butylformamide,368.85,1,CC(C)(C)NC=O,le15,0,0,0,0,randonly selected as training point or test point
"Propane, 1-isothiocyanato-",258.15,1,CCCN=C=S,le15,0,0,0,0,randonly selected as training point or test point