compound,flashpoint,pure substance,smiles,source,is_silicon,is_metallic,is_tin,is_acid,data type
Diisopropyl ether,245.15,1,CC(C)OC(C)C,hazardous materials,0,0,0,0,randonly selected as training point or test point
Diisopropyl benzene,349.15,1,CC(C)c1ccccc1C(C)C,hazardous materials,0,0,0,0,randonly selected as training point or test point
Dimethoxyethane,313.15,1,COCCOC,hazardous materials,0,0,0,0,randonly selected as training point or test point
Dimethoxymethane,255.15,1,COCOC,hazardous materials,0,0,0,0,randonly selected as training point or test point
Dimethoxypropane,266.15,1,COC(C)(C)OC,hazardous materials,0,0,0,0,randonly selected as training point or test point
"N,N-Dimethyl acetamide ",350.15,1,CC(=O)N(C)C,hazardous materials,0,0,0,0,randonly selected as training point or test point
"N,N-Dimethylaniline ",336.15,1,CN(C)c1ccccc1,hazardous materials,0,0,0,0,randonly selected as training point or test point
"2,2-Dimethyl butane",225.15,1,CCC(C)(C)C,hazardous materials,0,0,0,0,randonly selected as training point or test point
"2,3-Dimethyl butane",244.15,1,CC(C)C(C)C,hazardous materials,0,0,0,0,randonly selected as training point or test point
Dimethyl carbonate,292.15,1,COC(=O)OC,hazardous materials,0,0,0,0,randonly selected as training point or test point
Dimethylformamide,331.15,1,CN(C)C=O,hazardous materials,0,0,0,0,randonly selected as training point or test point
Dimethyl phthalate,419.15,1,COC(=O)c1ccccc1C(=O)OC,hazardous materials,0,0,0,0,randonly selected as training point or test point
Dimethyl sulphate,356.15,1,COS(=O)(=O)OC,hazardous materials,0,0,0,0,randonly selected as training point or test point
Dimethyl sulphoxide,368.15,1,CS(C)=O,hazardous materials,0,0,0,0,randonly selected as training point or test point
m-Dinitrobenzene,423.15,1,O=[N+]([O-])c1cccc([N+](=O)[O-])c1,hazardous materials,0,0,0,0,randonly selected as training point or test point
o-Dinitrobenzene,423.15,1,O=[N+]([O-])c1ccccc1[N+](=O)[O-],hazardous materials,0,0,0,0,randonly selected as training point or test point
p-Dinitrobenzene,423.15,1,O=[N+]([O-])c1ccc([N+](=O)[O-])cc1,hazardous materials,0,0,0,0,randonly selected as training point or test point
"2,4-Dinitrotoluene",480.15,1,Cc1ccc([N+](=O)[O-])cc1[N+](=O)[O-],hazardous materials,0,0,0,0,randonly selected as training point or test point
Di-n-Octyl phthalate,492.15,1,CCCCCCCCOC(=O)c1ccccc1C(=O)OCCCCCCCC,hazardous materials,0,0,0,0,randonly selected as training point or test point
Di-sec-Octyl phthalate,491.15,1,CCCCCCC(C)OC(=O)c1ccccc1C(=O)OC(C)CCCCCC,hazardous materials,0,0,0,0,randonly selected as training point or test point
"1,4-Dioxane",285.15,1,C1COCCO1,hazardous materials,0,0,0,0,randonly selected as training point or test point
Diphenylamine,426.15,1,c1ccc(Nc2ccccc2)cc1,hazardous materials,0,0,0,0,randonly selected as training point or test point
Diphenylmethane,403.15,1,c1ccc(Cc2ccccc2)cc1,hazardous materials,0,0,0,0,randonly selected as training point or test point
Dipropylene glycol methyl ether,358.15,1,COC(C)COC(C)CO,hazardous materials,0,0,0,0,randonly selected as training point or test point
n-Dodecane,347.15,1,CCCCCCCCCCCC,hazardous materials,0,0,0,0,randonly selected as training point or test point
Epichlorohydrin,314.15,1,ClCC1CO1,hazardous materials,0,0,0,0,randonly selected as training point or test point
"1,2-Epoxy-propane",236.15,1,CC1CO1,hazardous materials,0,0,0,0,randonly selected as training point or test point
Ethanol,285.15,1,CCO,hazardous materials,0,0,0,0,randonly selected as training point or test point
Ethanolamine,358.15,1,NCCO,hazardous materials,0,0,0,0,randonly selected as training point or test point
Ethyl acetanilide,325.15,1,CCCC(=O)Nc1ccccc1,hazardous materials,0,0,0,0,randonly selected as training point or test point
Ethyl acetate,268.75,1,CCOC(C)=O,hazardous materials,0,0,0,0,randonly selected as training point or test point
Ethyl acetoacetate,357.15,1,CCOC(=O)CC(C)=O,hazardous materials,0,0,0,0,randonly selected as training point or test point
Ethyl acrylate,289.15,1,C=CC(=O)OCC,hazardous materials,0,0,0,0,randonly selected as training point or test point
Ethyl amyl ketone,330.15,1,CCCCCC(=O)CC,hazardous materials,0,0,0,0,randonly selected as training point or test point
n-Ethyl aniline,358.15,1,CCNc1ccccc1,hazardous materials,0,0,0,0,randonly selected as training point or test point
Ethyl benzene,288.15,1,CCc1ccccc1,hazardous materials,0,0,0,0,randonly selected as training point or test point
Ethyl bromoacetate,321.15,1,CCOC(=O)CBr,hazardous materials,0,0,0,0,randonly selected as training point or test point
Ethyl butyl ketone,319.15,1,CCCCC(=O)CC,hazardous materials,0,0,0,0,randonly selected as training point or test point
2-Ethyl butyraldehyde,294.15,1,CCC(C=O)CC,hazardous materials,0,0,0,0,randonly selected as training point or test point
Ethyl butyrate,299.15,1,CCCC(=O)OCC,hazardous materials,0,0,0,0,randonly selected as training point or test point
Ethyl chloride,223.15,1,CCCl,hazardous materials,0,0,0,0,randonly selected as training point or test point
Ethyl chloroacetate,339.15,1,CCOC(=O)CCl,hazardous materials,0,0,0,0,randonly selected as training point or test point
Ethyl chloroformate,289.15,1,CCOC(=O)Cl,hazardous materials,0,0,0,0,randonly selected as training point or test point
Ethyl crotonate,275.15,1,C/C=C/C(=O)OCC,hazardous materials,0,0,0,0,randonly selected as training point or test point
Ethyl cyanoacetate,383.15,1,CCOC(=O)CC#N,hazardous materials,0,0,0,0,randonly selected as training point or test point
Ethylene chlorohydrin,333.15,1,OCCCl,hazardous materials,0,0,0,0,randonly selected as training point or test point
Ethylene dichloride,286.15,1,ClCCCl,hazardous materials,0,0,0,0,randonly selected as training point or test point
Ethylene glycol,384.15,1,OCCO,hazardous materials,0,0,0,0,randonly selected as training point or test point
Ethyl ether,228.15,1,CCOCC,hazardous materials,0,0,0,0,randonly selected as training point or test point
Ethyl formate,253.15,1,CCOC=O,hazardous materials,0,0,0,0,randonly selected as training point or test point
2-Ethyl hexanol,357.15,1,CCCCC(CC)CO,hazardous materials,0,0,0,0,randonly selected as training point or test point
Ethyl lactate,319.15,1,CCOC(=O)C(C)O,hazardous materials,0,0,0,0,randonly selected as training point or test point
Ethyl methyl ether,236.15,1,CCOC,hazardous materials,0,0,0,0,randonly selected as training point or test point
N-Ethylmorpholine,305.15,1,CCN1CCOCC1,hazardous materials,0,0,0,0,randonly selected as training point or test point
Ethyl nitrite,238.15,1,CCON=O,hazardous materials,0,0,0,0,randonly selected as training point or test point
Ethyl oxalate,349.15,1,CCOC(=O)C(=O)[O-],hazardous materials,0,0,0,0,randonly selected as training point or test point
Ethyl propionate,285.15,1,CCOC(=O)CC,hazardous materials,0,0,0,0,randonly selected as training point or test point
2-Ethyl-3-propyl acrolein,341.15,1,CCCC=C(C=O)CC,hazardous materials,0,0,0,0,randonly selected as training point or test point
Ethyl silicate,325.15,1,CCO[Si]([O-])([O-])[O-],hazardous materials,1,1,0,0,randonly selected as training point or test point
Formamide,428.15,1,NC=O,hazardous materials,0,0,0,0,randonly selected as training point or test point
Formic acid,342.15,1,O=CO,hazardous materials,0,0,0,1,randonly selected as training point or test point
Furfural,333.15,1,O=Cc1ccco1,hazardous materials,0,0,0,0,randonly selected as training point or test point
Furfuryl alcohol,348.15,1,OCc1ccco1,hazardous materials,0,0,0,0,randonly selected as training point or test point
Glycerol,433.15,1,OCC(O)CO,hazardous materials,0,0,0,0,randonly selected as training point or test point
Heptane,269.15,1,CCCCCCC,hazardous materials,0,0,0,0,randonly selected as training point or test point
n-Heptylamine,327.15,1,CCCCCCCN,hazardous materials,0,0,0,0,randonly selected as training point or test point
Hexachlorobenzene,515.15,1,Clc1c(Cl)c(Cl)c(Cl)c(Cl)c1Cl,hazardous materials,0,0,0,0,randonly selected as training point or test point
"2,4-Hexadienal",341.15,1,CC=CC=CC=O,hazardous materials,0,0,0,0,randonly selected as training point or test point
"1,4-Hexadiene",252.15,1,C=CCC=CC,hazardous materials,0,0,0,0,randonly selected as training point or test point
Hexane,251.15,1,CCCCCC,hazardous materials,0,0,0,0,randonly selected as training point or test point
n-Hexanol,333.15,1,CCCCCCO,hazardous materials,0,0,0,0,randonly selected as training point or test point
sec-Hexyl acetate,318.15,1,CCCCC(C)OC(C)=O,hazardous materials,0,0,0,0,randonly selected as training point or test point
Hexyl amine,302.15,1,CCCCCCN,hazardous materials,0,0,0,0,randonly selected as training point or test point
Hydrocyanic acid,255.15,1,C#N,hazardous materials,0,0,0,1,randonly selected as training point or test point
Hydroquinone monomethyl ether,404.15,1,COc1ccc(O)cc1,hazardous materials,0,0,0,0,randonly selected as training point or test point
Isoprene,219.15,1,C=CC(=C)C,hazardous materials,0,0,0,0,randonly selected as training point or test point
Lactonitrile,350.15,1,CC(O)C#N,hazardous materials,0,0,0,0,randonly selected as training point or test point
Maleic anhydride,375.15,1,O=C1C=CC(=O)O1,hazardous materials,0,0,0,0,randonly selected as training point or test point
"p-Mentha-1,8-diene",318.15,1,C=C(C)C1CC=C(C)CC1,hazardous materials,0,0,0,0,randonly selected as training point or test point
2-Mercaptoethanol,347.15,1,OCCS,hazardous materials,0,0,0,0,randonly selected as training point or test point
Mesityl oxide,304.15,1,CC(=O)C=C(C)C,hazardous materials,0,0,0,0,randonly selected as training point or test point
Methyl acetate,264.15,1,COC(C)=O,hazardous materials,0,0,0,0,randonly selected as training point or test point
Methyl acrylate,270.15,1,C=CC(=O)OC,hazardous materials,0,0,0,0,randonly selected as training point or test point
Methyl alcohol,285.15,1,CO,hazardous materials,0,0,0,0,randonly selected as training point or test point
Methyl amyl alcohol,314.15,1,CCCCC(C)O,hazardous materials,0,0,0,0,randonly selected as training point or test point
N-Methylbutylamine,286.15,1,CCCCNC,hazardous materials,0,0,0,0,randonly selected as training point or test point
Methyl butyl ketone,308.15,1,CCCCC(C)=O,hazardous materials,0,0,0,0,randonly selected as training point or test point
Methyl butyrate,287.15,1,CCCC(=O)OC,hazardous materials,0,0,0,0,randonly selected as training point or test point
Methyl chloroformate,285.15,1,COC(=O)Cl,hazardous materials,0,0,0,0,randonly selected as training point or test point
Methyl cyclohexane,269.15,1,CC1CCCCC1,hazardous materials,0,0,0,0,randonly selected as training point or test point
2-Methyl cyclohexanone,321.15,1,CC1CCCCC1=O,hazardous materials,0,0,0,0,randonly selected as training point or test point
4-Methyl cyclohexene,272.15,1,CC1CC=CCC1,hazardous materials,0,0,0,0,randonly selected as training point or test point
Methyl ether,232.15,1,COC,hazardous materials,0,0,0,0,randonly selected as training point or test point
Methyl ethyl ether,236.15,1,CCOC,hazardous materials,0,0,0,0,randonly selected as training point or test point
Methyl ethyl ketone,266.15,1,CCC(C)=O,hazardous materials,0,0,0,0,randonly selected as training point or test point
Methyl formate,254.15,1,COC=O,hazardous materials,0,0,0,0,randonly selected as training point or test point
2-Methyl furan,243.15,1,Cc1ccco1,hazardous materials,0,0,0,0,randonly selected as training point or test point
Methyl isobutyl ketone,296.15,1,CC(=O)CC(C)C,hazardous materials,0,0,0,0,randonly selected as training point or test point
Methyl isobutyrate,286.15,1,COC(=O)C(C)C,hazardous materials,0,0,0,0,randonly selected as training point or test point
Methyl methacrylate,283.15,1,C=C(C)C(=O)OC,hazardous materials,0,0,0,0,randonly selected as training point or test point
Methyl-n-Propyl ketone,280.15,1,CCCC(C)=O,hazardous materials,0,0,0,0,randonly selected as training point or test point
Methyl salicylate,374.15,1,COC(=O)c1ccccc1O,hazardous materials,0,0,0,0,randonly selected as training point or test point
Methyl vinyl ether,222.15,1,C=COC,hazardous materials,0,0,0,0,randonly selected as training point or test point
Monomethylamine,263.15,1,CN,hazardous materials,0,0,0,0,randonly selected as training point or test point
Morpholine,311.15,1,C1COCCN1,hazardous materials,0,0,0,0,randonly selected as training point or test point
Naphthalene,352.15,1,c1ccc2ccccc2c1,hazardous materials,0,0,0,0,randonly selected as training point or test point
2-Naphthol,426.15,1,Oc1ccc2ccccc2c1,hazardous materials,0,0,0,0,randonly selected as training point or test point
1-Naphthylamine,430.15,1,Nc1cccc2ccccc12,hazardous materials,0,0,0,0,randonly selected as training point or test point
o-Nitroaniline,441.15,1,Nc1ccccc1[N+](=O)[O-],hazardous materials,0,0,0,0,randonly selected as training point or test point
p-Nitroaniline,472.15,1,Nc1ccc([N+](=O)[O-])cc1,hazardous materials,0,0,0,0,randonly selected as training point or test point
Nitrobenzene,361.15,1,O=[N+]([O-])c1ccccc1,hazardous materials,0,0,0,0,randonly selected as training point or test point
o-Nitrobiphenyl,416.15,1,O=[N+]([O-])c1ccccc1-c1ccccc1,hazardous materials,0,0,0,0,randonly selected as training point or test point
Nitroethane,311.15,1,CC[N+](=O)[O-],hazardous materials,0,0,0,0,randonly selected as training point or test point
Nitromethane,308.15,1,C[N+](=O)[O-],hazardous materials,0,0,0,0,randonly selected as training point or test point
alpha-Nitronaphthalene,437.15,1,O=[N+]([O-])c1cccc2ccccc12,hazardous materials,0,0,0,0,randonly selected as training point or test point
1-Nitropropane,322.15,1,CCC[N+](=O)[O-],hazardous materials,0,0,0,0,randonly selected as training point or test point
2-Nitropropane,312.15,1,CC(C)[N+](=O)[O-],hazardous materials,0,0,0,0,randonly selected as training point or test point
m-Nitrotoluene,379.15,1,Cc1cccc([N+](=O)[O-])c1,hazardous materials,0,0,0,0,randonly selected as training point or test point
o-Nitrotoluene,379.15,1,Cc1ccccc1[N+](=O)[O-],hazardous materials,0,0,0,0,randonly selected as training point or test point
p-Nitrotoluene,379.15,1,Cc1ccc([N+](=O)[O-])cc1,hazardous materials,0,0,0,0,randonly selected as training point or test point
Nonyl phenol,414.15,1,CCCCCCCCCc1ccccc1O,hazardous materials,0,0,0,0,randonly selected as training point or test point
Octane,286.15,1,CCCCCCCC,hazardous materials,0,0,0,0,randonly selected as training point or test point
Octanoic acid,405.15,1,CCCCCCCC(=O)O,hazardous materials,0,0,0,1,randonly selected as training point or test point
1-Octanol,354.15,1,CCCCCCCCO,hazardous materials,0,0,0,0,randonly selected as training point or test point
2-Octanol,361.15,1,CCCCCCC(C)O,hazardous materials,0,0,0,0,randonly selected as training point or test point
Oleic acid,462.15,1,CCCCCCCC/C=C\CCCCCCCC(=O)O,hazardous materials,0,0,0,1,randonly selected as training point or test point
n-Pentane,224.15,1,CCCCC,hazardous materials,0,0,0,0,randonly selected as training point or test point
iso-Pentane,222.15,1,CCC(C)C,hazardous materials,0,0,0,0,randonly selected as training point or test point
"1,5-Pentanediol",408.15,1,OCCCCCO,hazardous materials,0,0,0,0,randonly selected as training point or test point
"2,4-Pentanedione",314.15,1,CC(=O)CC(C)=O,hazardous materials,0,0,0,0,randonly selected as training point or test point
2-Pentanol,312.15,1,CCCC(C)O,hazardous materials,0,0,0,0,randonly selected as training point or test point
Phenol,352.15,1,Oc1ccccc1,hazardous materials,0,0,0,0,randonly selected as training point or test point
Phenyl acetate,353.15,1,CC(=O)Oc1ccccc1,hazardous materials,0,0,0,0,randonly selected as training point or test point
p-Phenylenediamine,429.15,1,Nc1ccc(N)cc1,hazardous materials,0,0,0,0,randonly selected as training point or test point
Phenylethanolamine,425.15,1,NCC(O)c1ccccc1,hazardous materials,0,0,0,0,randonly selected as training point or test point
Phenyl ether,369.15,1,c1ccc(Oc2ccccc2)cc1,hazardous materials,0,0,0,0,randonly selected as training point or test point
Phenylhydrazine,362.15,1,NNc1ccccc1,hazardous materials,0,0,0,0,randonly selected as training point or test point
o-Phenyl phenol,397.15,1,Oc1ccccc1-c1ccccc1,hazardous materials,0,0,0,0,randonly selected as training point or test point
Phorone,358.15,1,CC(C)=CC(=O)C=C(C)C,hazardous materials,0,0,0,0,randonly selected as training point or test point
Phthalic anhydride,424.15,1,O=C1OC(=O)c2ccccc21,hazardous materials,0,0,0,0,randonly selected as training point or test point
2-Picoline,312.15,1,Cc1ccccn1,hazardous materials,0,0,0,0,randonly selected as training point or test point
4-Picoline,330.15,1,Cc1ccncc1,hazardous materials,0,0,0,0,randonly selected as training point or test point
Picric acid,423.15,1,O=[N+]([O-])c1cc([N+](=O)[O-])c(O)c([N+](=O)[O-])c1,hazardous materials,0,0,0,1,randonly selected as training point or test point
2-Pinene,306.15,1,CC1=CCC2CC1C2(C)C,hazardous materials,0,0,0,0,randonly selected as training point or test point
Piperidine,289.15,1,C1CCNCC1,hazardous materials,0,0,0,0,randonly selected as training point or test point
Piperylene,230.15,1,C=CC=CC,hazardous materials,0,0,0,0,randonly selected as training point or test point
"1,3-Propanediamine",297.15,1,NCCCN,hazardous materials,0,0,0,0,randonly selected as training point or test point
"1,2-Propanediol",372.15,1,CC(O)CO,hazardous materials,0,0,0,0,randonly selected as training point or test point
Propargyl alcohol,309.15,1,C#CCO,hazardous materials,0,0,0,0,randonly selected as training point or test point
Propargyl bromide,283.15,1,C#CCBr,hazardous materials,0,0,0,0,randonly selected as training point or test point
iso-Propenyl acetate,289.15,1,C=C(C)OC(C)=O,hazardous materials,0,0,0,0,randonly selected as training point or test point
Propionaldehyde,264.15,1,CCC=O,hazardous materials,0,0,0,0,randonly selected as training point or test point
Propionic acid,327.15,1,CCC(=O)O,hazardous materials,0,0,0,1,randonly selected as training point or test point
Propionitrile,275.15,1,CCC#N,hazardous materials,0,0,0,0,randonly selected as training point or test point
Propionyl chloride,285.15,1,CCC(=O)Cl,hazardous materials,0,0,0,0,randonly selected as training point or test point
iso-Propyl acetate,277.15,1,CC(=O)OC(C)C,hazardous materials,0,0,0,0,randonly selected as training point or test point
n-Propyl acetate,287.15,1,CCCOC(C)=O,hazardous materials,0,0,0,0,randonly selected as training point or test point
n-Propyl alcohol,288.15,1,CCCO,hazardous materials,0,0,0,0,randonly selected as training point or test point
iso-Propyl alcohol,285.15,1,CC(C)O,hazardous materials,0,0,0,0,randonly selected as training point or test point
Propylamine,236.15,1,CCCN,hazardous materials,0,0,0,0,randonly selected as training point or test point
iso-Propylamine,236.15,1,CC(C)N,hazardous materials,0,0,0,0,randonly selected as training point or test point
Propyl benzene,303.15,1,CCCc1ccccc1,hazardous materials,0,0,0,0,randonly selected as training point or test point
iso-Propyl benzoate,372.15,1,CC(C)OC(=O)c1ccccc1,hazardous materials,0,0,0,0,randonly selected as training point or test point
Propylene,165.15,1,C=CC,hazardous materials,0,0,0,0,randonly selected as training point or test point
Propylene carbonate,408.15,1,CC1COC(=O)O1,hazardous materials,0,0,0,0,randonly selected as training point or test point
iso-Propyl ether,245.15,1,CC(C)OC(C)C,hazardous materials,0,0,0,0,randonly selected as training point or test point
n-Propyl formate,270.15,1,CCCOC=O,hazardous materials,0,0,0,0,randonly selected as training point or test point
iso-Propyl formate,267.15,1,CC(C)OC=O,hazardous materials,0,0,0,0,randonly selected as training point or test point
Propyl nitrate,293.15,1,CCCO[N+](=O)[O-],hazardous materials,0,0,0,0,randonly selected as training point or test point
Pyridine,293.15,1,c1ccncc1,hazardous materials,0,0,0,0,randonly selected as training point or test point
Pyrrolidine,276.15,1,C1CCNC1,hazardous materials,0,0,0,0,randonly selected as training point or test point