compound,flashpoint,pure substance,smiles,source,is_silicon,is_metallic,is_tin,is_acid,data type
"Hexanoic acid, pentyl ester",361.05,1,CCCCCOC(=O)CCCCC,le15,0,0,0,1,randonly selected as training point or test point
"Octanoic acid, propyl ester",361.05,1,CCCCCCCC(=O)OCCC,le15,0,0,0,1,randonly selected as training point or test point
hexyl pentanoate,361.05,1,CCCCCCOC(=O)CCCC,le15,0,0,0,0,randonly selected as training point or test point
"Hexanoic acid, 3-methylbutyl ester",358.15,1,CCCCCC(=O)OCCC(C)C,le15,0,0,0,1,randonly selected as training point or test point
"Propanoic acid, 2,2-dimethyl-, hexyl ester",349.85,1,CCCCCCOC(=O)C(C)(C)C,le15,0,0,0,1,randonly selected as training point or test point
decyl formate,373.05,1,CCCCCCCCCCOC=O,le15,0,0,0,0,randonly selected as training point or test point
butyl heptanoate,361.05,1,CCCCCCC(=O)OCCCC,le15,0,0,0,0,randonly selected as training point or test point
heptyl butanoate,363.75,1,CCCCCCCOC(=O)CCC,le15,0,0,0,0,randonly selected as training point or test point
2-methylpropyl heptanoate,356.05,1,CCCCCCC(=O)OCC(C)C,le15,0,0,0,0,randonly selected as training point or test point
"Propane, 1,2-epoxy-3-((2-ethylhexyl)oxy)-",369.85,1,CCCCC(CC)COCC1CO1,le15,0,0,0,0,randonly selected as training point or test point
"4-Nonanol, 2,6,8-trimethyl-",367.45,1,CC(C)CC(C)CC(O)CC(C)C,le15,0,0,0,0,randonly selected as training point or test point
dodecan-2-ol,370.95,1,CCCCCCCCCCC(C)O,le15,0,0,0,0,randonly selected as training point or test point
1dodecanol,400.0,1,CCCCCCCCCCCCO,le15,0,0,0,0,randonly selected as training point or test point
"1,3-Propanediamine, N,N-dibutyl-",376.15,1,CCCCN(CCCC)CCCN,le15,0,0,0,0,randonly selected as training point or test point
"Disiloxane, 1,3-diethenyl-1,1,3,3-tetramethyl-",297.15,1,C=C[Si](C)(C)O[Si](C)(C)C=C,le15,1,1,0,0,randonly selected as training point or test point
"Acetic acid, (4-chlorophenoxy)-",417.55,1,O=C(O)COc1ccc(Cl)cc1,le15,0,0,0,1,randonly selected as training point or test point
"4-(Chloromethyl)-1,2-dimethoxybenzene",371.75,1,COc1ccc(CCl)cc1OC,le15,0,0,0,0,randonly selected as training point or test point
"Thiourea, (3-chlorophenyl)- (9CI)",406.35,1,NC(=S)Nc1cccc(Cl)c1,le15,0,0,0,0,randonly selected as training point or test point
"Urea, 1-(o-chlorophenyl)-2-thio-",404.25,1,NC(=S)Nc1ccccc1Cl,le15,0,0,0,0,randonly selected as training point or test point
2-carbonochloridoyloxyethyl carbonochloridate,367.05,1,O=C(Cl)OCCOC(=O)Cl,le15,0,0,0,0,randonly selected as training point or test point
1-bromo-4-methoxybenzene,369.798,1,COc1ccc(Br)cc1,le15,0,0,0,0,randonly selected as training point or test point
4-Bromobenzyl alcohol,388.85,1,OCc1ccc(Br)cc1,le15,0,0,0,0,randonly selected as training point or test point
1-bromo-3-methoxybenzene,366.45,1,COc1cccc(Br)c1,le15,0,0,0,0,randonly selected as training point or test point
1-bromo-2-methoxybenzene,369.15,1,COc1ccccc1Br,le15,0,0,0,0,randonly selected as training point or test point
"p-Cresol, 2-bromo-",356.05,1,Cc1ccc(O)c(Br)c1,le15,0,0,0,0,randonly selected as training point or test point
"3H-1,2-Dithiole-3-one, 4,5-dichloro-",370.95,1,O=c1ssc(Cl)c1Cl,le15,0,0,0,0,randonly selected as training point or test point
"Ethane, 1,2-bis(2-chloroethoxy)-",394.15,1,ClCCOCCOCCCl,le15,0,0,0,0,randonly selected as training point or test point
"1,1-dichloro-2,2-diethoxyethane",333.15,1,CCOC(OCC)C(Cl)Cl,le15,0,0,0,0,randonly selected as training point or test point
"Isocyanic acid, (m-trifluoromethylphenyl) ester",331.15,1,O=C=Nc1cccc(C(F)(F)F)c1,le15,0,0,0,1,randonly selected as training point or test point
4-(trifluoromethoxy)benzonitrile,355.15,1,N#Cc1ccc(OC(F)(F)F)cc1,le15,0,0,0,0,randonly selected as training point or test point
"Isocyanic acid, (alpha,alpha,alpha-trifluoro-o-tolyl) ester",342.15,1,O=C=Nc1ccccc1C(F)(F)F,le15,0,0,0,1,randonly selected as training point or test point
2-(Hydroxymethyl)-5-nitro-1H-imidazole-1-ethanol,514.35,1,O=[N+]([O-])c1cnc(CO)n1CCO,le15,0,0,0,0,randonly selected as training point or test point
"Acetamide, N-(5-nitro-2-thiazolyl)-",410.65,1,CC(=O)Nc1ncc([N+](=O)[O-])s1,le15,0,0,0,0,randonly selected as training point or test point
"Naphthalene, 2-methyl-1-nitro-",423.55,1,Cc1ccc2ccccc2c1[N+](=O)[O-],le15,0,0,0,0,randonly selected as training point or test point
"1H-Pyrrole-2,5-dione, 1-(4-methylphenyl)- (9CI)",427.35,1,Cc1ccc(N2C(=O)C=CC2=O)cc1,le15,0,0,0,0,randonly selected as training point or test point
N-Hydroxy-N-formyl-2-aminonaphthalene,456.65,1,O=CN(O)c1ccc2ccccc2c1,le15,0,0,0,0,randonly selected as training point or test point
"1H-Pyrrole-2,5-dione, 1-(2-methylphenyl)- (9CI)",412.45,1,Cc1ccccc1N1C(=O)C=CC1=O,le15,0,0,0,0,randonly selected as training point or test point
"6-Phenyl-1,3,5-triazine-2,4-diyldiamine",558.95,1,Nc1nc(N)nc(-c2ccccc2)n1,le15,0,0,0,0,randonly selected as training point or test point
"(1,1'-Biphenyl)-4-amine, 4'-fluoro- (9CI)",430.05,1,Nc1ccc(-c2ccc(F)cc2)cc1,le15,0,0,0,0,randonly selected as training point or test point