compound,flashpoint,pure substance,smiles,source,is_silicon,is_metallic,is_tin,is_acid,data type
1-(bromomethyl)-2-methylbenzene,355.15,1,CC1=CC=CC=C1CBr,pubchem,0,0,0,0,randonly selected as training point or test point
2-chlorobenzaldehyde,361.15,1,C1=CC=C(C(=C1)C=O)Cl,pubchem,0,0,0,0,randonly selected as training point or test point
2-ethylphenol,351.15,1,CCC1=CC=CC=C1O,pubchem,0,0,0,0,randonly selected as training point or test point
2-hydroxybenzaldehyde,351.15,1,C1=CC=C(C(=C1)C=O)O,pubchem,0,0,0,0,randonly selected as training point or test point
2-methoxyaniline,372.15,1,COC1=CC=CC=C1N,pubchem,0,0,0,0,randonly selected as training point or test point
1-chloronaphthalene,394.15,1,C1=CC=C2C(=C1)C=CC=C2Cl,pubchem,0,0,0,0,randonly selected as training point or test point
naphthalen-1-ol,426.15,1,C1=CC=C2C(=C1)C=CC=C2O,pubchem,0,0,0,0,randonly selected as training point or test point
2-phenylphenol,397.15,1,C1=CC=C(C=C1)C2=CC=CC=C2O,pubchem,0,0,0,0,randonly selected as training point or test point
"2,4,6-tris[(dimethylamino)methyl]phenol",397.15,1,CN(C)CC1=CC(=C(C(=C1)CN(C)C)O)CN(C)C,pubchem,0,0,0,0,randonly selected as training point or test point
"1,3-diisocyanato-2-methylbenzene",405.15,1,CC1=C(C=CC=C1N=C=O)N=C=O,pubchem,0,0,0,0,randonly selected as training point or test point
"benzene-1,2-dicarbonitrile",435.15,1,C1=CC=C(C(=C1)C#N)C#N,pubchem,0,0,0,0,randonly selected as training point or test point
"1,2,3,4,4a,5,6,7,8,8a-decahydronaphthalene",330.15,1,C1CCC2CCCCC2C1,pubchem,0,0,0,0,randonly selected as training point or test point
quinoline,332.15,1,C1=CC=C2C(=C1)C=CC=N2,pubchem,0,0,0,0,randonly selected as training point or test point
1-methoxy-2-nitrobenzene,415.15,1,COC1=CC=CC=C1[N+](=O)[O-],pubchem,0,0,0,0,randonly selected as training point or test point
N-butyl-N-phenylacetamide,414.15,1,CCCCN(C1=CC=CC=C1)C(=O)C,pubchem,0,0,0,0,randonly selected as training point or test point
2-methylnaphthalene,371.15,1,CC1=CC2=CC=CC=C2C=C1,pubchem,0,0,0,0,randonly selected as training point or test point
2-chloronaphthalene,398.15,1,C1=CC=C2C=C(C=CC2=C1)Cl,pubchem,0,0,0,0,randonly selected as training point or test point
naphthalen-2-amine,430.15,1,C1=CC=C2C=C(C=CC2=C1)N,pubchem,0,0,0,0,randonly selected as training point or test point
2-methylquinoline,352.15,1,CC1=NC2=CC=CC=C2C=C1,pubchem,0,0,0,0,randonly selected as training point or test point
"N,N-diethylaniline",358.15,1,CCN(CC)C1=CC=CC=C1,pubchem,0,0,0,0,randonly selected as training point or test point
"1,3-diphenylbenzene",464.15,1,C1=CC=C(C=C1)C2=CC(=CC=C2)C3=CC=CC=C3,pubchem,0,0,0,0,randonly selected as training point or test point
6-methylchromen-2-one,403.15,1,CC1=CC2=C(C=C1)OC(=O)C=C2,pubchem,0,0,0,0,randonly selected as training point or test point
"1,1'-biphenyl",386.15,1,C1=CC=C(C=C1)C2=CC=CC=C2,pubchem,0,0,0,0,randonly selected as training point or test point
1-bromo-4-phenylbenzene,416.15,1,C1=CC=C(C=C1)C2=CC=C(C=C2)Br,pubchem,0,0,0,0,randonly selected as training point or test point
4-phenylphenol,439.15,1,C1=CC=C(C=C1)C2=CC=C(C=C2)O,pubchem,0,0,0,0,randonly selected as training point or test point
10H-phenothiazine,475.15,1,C1=CC=C2C(=C1)NC3=CC=CC=C3S2,pubchem,0,0,0,0,randonly selected as training point or test point
1-nitro-4-phenylbenzene,416.15,1,C1=CC=C(C=C1)C2=CC=C(C=C2)[N+](=O)[O-],pubchem,0,0,0,0,randonly selected as training point or test point
"1,4-diphenylbenzene",480.15,1,C1=CC=C(C=C1)C2=CC=C(C=C2)C3=CC=CC=C3,pubchem,0,0,0,0,randonly selected as training point or test point
"1,2-dimethoxy-4-prop-2-enylbenzene",372.15,1,COC1=C(C=C(C=C1)CC=C)OC,pubchem,0,0,0,0,randonly selected as training point or test point
methyl benzoate,356.15,1,COC(=O)C1=CC=CC=C1,pubchem,0,0,0,0,randonly selected as training point or test point
"2-chloro-N,N-bis(prop-2-enyl)acetamide",459.15,1,C=CCN(CC=C)C(=O)CCl,pubchem,0,0,0,0,randonly selected as training point or test point
butyl 4-hydroxybenzoate,454.15,1,CCCCOC(=O)C1=CC=C(C=C1)O,pubchem,0,0,0,0,randonly selected as training point or test point
benzoyl benzenecarboperoxoate,353.15,1,C1=CC=C(C=C1)C(=O)OOC(=O)C2=CC=CC=C2,pubchem,0,0,0,0,randonly selected as training point or test point
"2-ethylhexane-1,3-diol",400.15,1,CCCC(C(CC)CO)O,pubchem,0,0,0,0,randonly selected as training point or test point
2-[2-[2-(2-ethylbutanoyloxy)ethoxy]ethoxy]ethyl 2-ethylbutanoate,469.15,1,CCC(CC)C(=O)OCCOCCOCCOC(=O)C(CC)CC,pubchem,0,0,0,0,randonly selected as training point or test point
1H-indene,351.15,1,C1C=CC2=CC=CC=C21,pubchem,0,0,0,0,randonly selected as training point or test point
2H-benzotriazole,443.15,1,C1=CC2=NNN=C2C=C1,pubchem,0,0,0,0,randonly selected as training point or test point
1-bromo-2-methylbenzene,352.15,1,CC1=CC=CC=C1Br,pubchem,0,0,0,0,randonly selected as training point or test point
"1,2-xylene",290.15,1,CC1=CC=CC=C1C,pubchem,0,0,0,0,randonly selected as training point or test point
1-chloro-2-methylbenzene,325.15,1,CC1=CC=CC=C1Cl,pubchem,0,0,0,0,randonly selected as training point or test point
"1,2-dichlorobenzene",339.15,1,C1=CC=C(C(=C1)Cl)Cl,pubchem,0,0,0,0,randonly selected as training point or test point
2-chloroaniline,371.15,1,C1=CC=C(C(=C1)N)Cl,pubchem,0,0,0,0,randonly selected as training point or test point
1-fluoro-2-methylbenzene,286.15,1,CC1=CC=CC=C1F,pubchem,0,0,0,0,randonly selected as training point or test point
2-methylaniline,358.15,1,CC1=CC=CC=C1N,pubchem,0,0,0,0,randonly selected as training point or test point
"benzene-1,2-diamine",429.15,1,C1=CC=C(C(=C1)N)N,pubchem,0,0,0,0,randonly selected as training point or test point
2-bromophenol,315.15,1,C1=CC=C(C(=C1)O)Br,pubchem,0,0,0,0,randonly selected as training point or test point
2-chlorophenol,337.15,1,C1=CC=C(C(=C1)O)Cl,pubchem,0,0,0,0,randonly selected as training point or test point
"1,2,4-trimethylbenzene",317.15,1,CC1=CC(=C(C=C1)C)C,pubchem,0,0,0,0,randonly selected as training point or test point
"3,4-dimethylaniline",371.15,1,CC1=C(C=C(C=C1)N)C,pubchem,0,0,0,0,randonly selected as training point or test point
"2,4-dimethylaniline",369.15,1,CC1=CC(=C(C=C1)N)C,pubchem,0,0,0,0,randonly selected as training point or test point
4-chloro-2-methylaniline,433.15,1,CC1=C(C=CC(=C1)Cl)N,pubchem,0,0,0,0,randonly selected as training point or test point
"2,4-dichloro-1-methylbenzene",472.15,1,CC1=C(C=C(C=C1)Cl)Cl,pubchem,0,0,0,0,randonly selected as training point or test point
3-chloro-4-methylaniline,373.15,1,CC1=C(C=C(C=C1)N)Cl,pubchem,0,0,0,0,randonly selected as training point or test point
"3,4-dichloroaniline",439.15,1,C1=CC(=C(C=C1N)Cl)Cl,pubchem,0,0,0,0,randonly selected as training point or test point
"2,5-dimethylaniline",367.15,1,CC1=CC(=C(C=C1)C)N,pubchem,0,0,0,0,randonly selected as training point or test point
"4-methylbenzene-1,3-diamine",422.15,1,CC1=C(C=C(C=C1)N)N,pubchem,0,0,0,0,randonly selected as training point or test point
"2,5-dichloroaniline",386.15,1,C1=CC(=C(C=C1Cl)N)Cl,pubchem,0,0,0,0,randonly selected as training point or test point
2-amino-4-chlorophenol,443.15,1,C1=CC(=C(C=C1Cl)N)O,pubchem,0,0,0,0,randonly selected as training point or test point
diethyl oxalate,349.15,1,CCOC(=O)C(=O)OCC,pubchem,0,0,0,0,randonly selected as training point or test point
"1,2,4,5-tetramethylbenzene",327.15,1,CC1=CC(=C(C=C1C)C)C,pubchem,0,0,0,0,randonly selected as training point or test point
"1,2,4,5-tetrachlorobenzene",428.15,1,C1=C(C(=CC(=C1Cl)Cl)Cl)Cl,pubchem,0,0,0,0,randonly selected as training point or test point
"2,4,5-trichlorophenol",406.15,1,C1=C(C(=CC(=C1Cl)Cl)Cl)O,pubchem,0,0,0,0,randonly selected as training point or test point
2-phenyloxirane,352.15,1,C1C(O1)C2=CC=CC=C2,pubchem,0,0,0,0,randonly selected as training point or test point
chloro(diethyl)alumane,250.15,1,CC[Al](CC)Cl,pubchem,0,1,0,0,randonly selected as training point or test point
"1,2-dibromo-3-chloropropane",350.15,1,C(C(CBr)Br)Cl,pubchem,0,0,0,0,randonly selected as training point or test point
"1,2,3-trichloropropane",355.15,1,C(C(CCl)Cl)Cl,pubchem,0,0,0,0,randonly selected as training point or test point
"1,2,3-trichloroprop-1-ene",358.15,1,C(C(=CCl)Cl)Cl,pubchem,0,0,0,0,randonly selected as training point or test point
pentan-3-one,286.15,1,CCC(=O)CC,pubchem,0,0,0,0,randonly selected as training point or test point
"1,3-dichloropropan-2-ol",347.15,1,C(C(CCl)O)Cl,pubchem,0,0,0,0,randonly selected as training point or test point
"3-chloropropane-1,2-diol",332.15,1,C(C(CCl)O)O,pubchem,0,0,0,0,randonly selected as training point or test point
N-butan-2-ylidenehydroxylamine,332.15,1,CCC(=NO)C,pubchem,0,0,0,0,randonly selected as training point or test point
"1,3-dimethylurea",427.15,1,CNC(=O)NC,pubchem,0,0,0,0,randonly selected as training point or test point
methyl prop-2-enoate,280.15,1,COC(=O)C=C,pubchem,0,0,0,0,randonly selected as training point or test point
methyl 2-chloroacetate,325.15,1,COC(=O)CCl,pubchem,0,0,0,0,randonly selected as training point or test point
methylcyclopentane,249.15,1,CC1CCCC1,pubchem,0,0,0,0,randonly selected as training point or test point
cyclopentanol,324.15,1,C1CCC(C1)O,pubchem,0,0,0,0,randonly selected as training point or test point
oxolan-2-one,371.15,1,C1CC(=O)OC1,pubchem,0,0,0,0,randonly selected as training point or test point
"1,3-dioxolan-2-one",416.15,1,C1COC(=O)O1,pubchem,0,0,0,0,randonly selected as training point or test point
2-tert-butyl-4-(5-tert-butyl-4-hydroxy-2-methylphenyl)sulfanyl-5-methylphenol,489.15,1,CC1=CC(=C(C=C1SC2=CC(=C(C=C2C)O)C(C)(C)C)C(C)(C)C)O,pubchem,0,0,0,0,randonly selected as training point or test point
2-[di(propan-2-yl)amino]ethanol,352.15,1,CC(C)N(CCO)C(C)C,pubchem,0,0,0,0,randonly selected as training point or test point
"2,4-dinitroaniline",497.15,1,C1=CC(=C(C=C1[N+](=O)[O-])[N+](=O)[O-])N,pubchem,0,0,0,0,randonly selected as training point or test point
(2-methyl-5-prop-1-en-2-ylcyclohex-2-en-1-yl) acetate,370.15,1,CC1=CCC(CC1OC(=O)C)C(=C)C,pubchem,0,0,0,0,randonly selected as training point or test point
ethyl 2-methylprop-2-enoate,289.15,1,CCOC(=O)C(=C)C,pubchem,0,0,0,0,randonly selected as training point or test point
ethyl 2-hydroxypropanoate,319.15,1,CCOC(=O)C(C)O,pubchem,0,0,0,0,randonly selected as training point or test point
2-methylpropanoyl 2-methylpropanoate,332.15,1,CC(C)C(=O)OC(=O)C(C)C,pubchem,0,0,0,0,randonly selected as training point or test point
"1-N,1-N,3-N,3-N-tetramethylbutane-1,3-diamine",319.15,1,CC(CCN(C)C)N(C)C,pubchem,0,0,0,0,randonly selected as training point or test point
2-methylpropyl 2-methylpropanoate,310.15,1,CC(C)COC(=O)C(C)C,pubchem,0,0,0,0,randonly selected as training point or test point
2-methylpropyl 2-methylprop-2-enoate,322.15,1,CC(C)COC(=O)C(=C)C,pubchem,0,0,0,0,randonly selected as training point or test point
butyl 2-methylprop-2-enoate,325.15,1,CCCCOC(=O)C(=C)C,pubchem,0,0,0,0,randonly selected as training point or test point
2-(2-methylprop-2-enoyloxy)ethyl 2-methylprop-2-enoate,374.15,1,CC(=C)C(=O)OCCOC(=O)C(=C)C,pubchem,0,0,0,0,randonly selected as training point or test point
triethylborane,237.15,1,B(CC)(CC)CC,pubchem,0,1,0,0,randonly selected as training point or test point
2-ethylbutan-1-ol,326.15,1,CCC(CC)CO,pubchem,0,0,0,0,randonly selected as training point or test point
2-ethylbutanal,294.15,1,CCC(CC)C=O,pubchem,0,0,0,0,randonly selected as training point or test point
oxolan-2-ylmethanol,348.15,1,C1CC(OC1)CO,pubchem,0,0,0,0,randonly selected as training point or test point
furan-2-ylmethanol,348.15,1,C1=COC(=C1)CO,pubchem,0,0,0,0,randonly selected as training point or test point
furan-2-carbaldehyde,333.15,1,C1=COC(=C1)C=O,pubchem,0,0,0,0,randonly selected as training point or test point
tert-butylbenzene,333.15,1,CC(C)(C)C1=CC=CC=C1,pubchem,0,0,0,0,randonly selected as training point or test point
trichloromethylbenzene,400.15,1,C1=CC=C(C=C1)C(Cl)(Cl)Cl,pubchem,0,0,0,0,randonly selected as training point or test point
trifluoromethylbenzene,285.15,1,C1=CC=C(C=C1)C(F)(F)F,pubchem,0,0,0,0,randonly selected as training point or test point
benzenesulfonic acid,386.15,1,C1=CC=C(C=C1)S(=O)(=O)O,pubchem,0,0,0,1,randonly selected as training point or test point
trichloro(phenyl)silane,364.15,1,C1=CC=C(C=C1)[Si](Cl)(Cl)Cl,pubchem,1,1,0,0,randonly selected as training point or test point
1-chloro-3-(trifluoromethyl)benzene,320.15,1,C1=CC(=CC(=C1)Cl)C(F)(F)F,pubchem,0,0,0,0,randonly selected as training point or test point
3-(trifluoromethyl)aniline,358.15,1,C1=CC(=CC(=C1)N)C(F)(F)F,pubchem,0,0,0,0,randonly selected as training point or test point
1-nitro-3-(trifluoromethyl)benzene,374.15,1,C1=CC(=CC(=C1)[N+](=O)[O-])C(F)(F)F,pubchem,0,0,0,0,randonly selected as training point or test point
1-tert-butyl-4-methylbenzene,331.15,1,CC1=CC=C(C=C1)C(C)(C)C,pubchem,0,0,0,0,randonly selected as training point or test point
4-tert-butylphenol,386.15,1,CC(C)(C)C1=CC=C(C=C1)O,pubchem,0,0,0,0,randonly selected as training point or test point
1-chloro-4-(trifluoromethyl)benzene,320.15,1,C1=CC(=CC=C1C(F)(F)F)Cl,pubchem,0,0,0,0,randonly selected as training point or test point
4-methylbenzenesulfonyl chloride,401.15,1,CC1=CC=C(C=C1)S(=O)(=O)Cl,pubchem,0,0,0,0,randonly selected as training point or test point
cumene,309.15,1,CC(C)C1=CC=CC=C1,pubchem,0,0,0,0,randonly selected as training point or test point
prop-1-en-2-ylbenzene,327.15,1,CC(=C)C1=CC=CC=C1,pubchem,0,0,0,0,randonly selected as training point or test point
1-phenylethanamine,352.15,1,CC(C1=CC=CC=C1)N,pubchem,0,0,0,0,randonly selected as training point or test point
1-phenylethanol,358.15,1,CC(C1=CC=CC=C1)O,pubchem,0,0,0,0,randonly selected as training point or test point
1-phenylethanone,355.15,1,CC(=O)C1=CC=CC=C1,pubchem,0,0,0,0,randonly selected as training point or test point
dichloromethylbenzene,365.15,1,C1=CC=C(C=C1)C(Cl)Cl,pubchem,0,0,0,0,randonly selected as training point or test point
benzoyl chloride,345.15,1,C1=CC=C(C=C1)C(=O)Cl,pubchem,0,0,0,0,randonly selected as training point or test point
"N,N-dimethylcyclohexanamine",315.15,1,CN(C)C1CCCCC1,pubchem,0,0,0,0,randonly selected as training point or test point
nitrobenzene,361.15,1,C1=CC=C(C=C1)[N+](=O)[O-],pubchem,0,0,0,0,randonly selected as training point or test point
1-methyl-3-nitrobenzene,379.15,1,CC1=CC(=CC=C1)[N+](=O)[O-],pubchem,0,0,0,0,randonly selected as training point or test point
"1,2-dimethyl-4-nitrobenzene",380.15,1,CC1=C(C=C(C=C1)[N+](=O)[O-])C,pubchem,0,0,0,0,randonly selected as training point or test point
"1,2-dichloro-4-nitrobenzene",397.15,1,C1=CC(=C(C=C1[N+](=O)[O-])Cl)Cl,pubchem,0,0,0,0,randonly selected as training point or test point
"benzene-1,3-dicarbonyl chloride",453.15,1,C1=CC(=CC(=C1)C(=O)Cl)C(=O)Cl,pubchem,0,0,0,0,randonly selected as training point or test point
"1,3-dinitrobenzene",423.15,1,C1=CC(=CC(=C1)[N+](=O)[O-])[N+](=O)[O-],pubchem,0,0,0,0,randonly selected as training point or test point
methyl 4-methylbenzoate,369.15,1,CC1=CC=C(C=C1)C(=O)OC,pubchem,0,0,0,0,randonly selected as training point or test point
1-methyl-4-propan-2-ylbenzene,320.15,1,CC1=CC=C(C=C1)C(C)C,pubchem,0,0,0,0,randonly selected as training point or test point
"N,N,4-trimethylaniline",349.15,1,CC1=CC=C(C=C1)N(C)C,pubchem,0,0,0,0,randonly selected as training point or test point
"4-N,4-N-dimethylbenzene-1,4-diamine",364.15,1,CN(C)C1=CC=C(C=C1)N,pubchem,0,0,0,0,randonly selected as training point or test point
1-methyl-4-nitrobenzene,379.15,1,CC1=CC=C(C=C1)[N+](=O)[O-],pubchem,0,0,0,0,randonly selected as training point or test point
1-chloro-4-nitrobenzene,383.15,1,C1=CC(=CC=C1[N+](=O)[O-])Cl,pubchem,0,0,0,0,randonly selected as training point or test point
4-nitroaniline,472.15,1,C1=CC(=CC=C1N)[N+](=O)[O-],pubchem,0,0,0,0,randonly selected as training point or test point
1-(4-methoxyphenyl)ethanone,411.15,1,CC(=O)C1=CC=C(C=C1)OC,pubchem,0,0,0,0,randonly selected as training point or test point
"benzene-1,4-dicarbonyl chloride",453.15,1,C1=CC(=CC=C1C(=O)Cl)C(=O)Cl,pubchem,0,0,0,0,randonly selected as training point or test point
terephthalic acid,533.15,1,C1=CC(=CC=C1C(=O)O)C(=O)O,pubchem,0,0,0,1,randonly selected as training point or test point
"1,4-dinitrobenzene",423.15,1,C1=CC(=CC=C1[N+](=O)[O-])[N+](=O)[O-],pubchem,0,0,0,0,randonly selected as training point or test point
2-(diethylamino)ethanol,333.15,1,CCN(CC)CCO,pubchem,0,0,0,0,randonly selected as training point or test point
bromomethylbenzene,360.15,1,C1=CC=C(C=C1)CBr,pubchem,0,0,0,0,randonly selected as training point or test point
4-ethenylcyclohexene,289.15,1,C=CC1CCC=CC1,pubchem,0,0,0,0,randonly selected as training point or test point
ethylbenzene,288.15,1,CCC1=CC=CC=C1,pubchem,0,0,0,0,randonly selected as training point or test point
styrene,304.15,1,C=CC1=CC=CC=C1,pubchem,0,0,0,0,randonly selected as training point or test point
chloromethylbenzene,340.15,1,C1=CC=C(C=C1)CCl,pubchem,0,0,0,0,randonly selected as training point or test point
phenylmethanamine,349.15,1,C1=CC=C(C=C1)CN,pubchem,0,0,0,0,randonly selected as training point or test point
benzonitrile,345.15,1,C1=CC=C(C=C1)C#N,pubchem,0,0,0,0,randonly selected as training point or test point
cyclohex-3-ene-1-carbaldehyde,330.15,1,C1CC(CC=C1)C=O,pubchem,0,0,0,0,randonly selected as training point or test point
phenylmethanethiol,343.15,1,C1=CC=C(C=C1)CS,pubchem,0,0,0,0,randonly selected as training point or test point
N-methylaniline,352.15,1,CNC1=CC=CC=C1,pubchem,0,0,0,0,randonly selected as training point or test point
phenylhydrazine,361.15,1,C1=CC=C(C=C1)NN,pubchem,0,0,0,0,randonly selected as training point or test point
anisole,325.15,1,COC1=CC=CC=C1,pubchem,0,0,0,0,randonly selected as training point or test point
2-ethenylpyridine,315.15,1,C=CC1=CC=CC=N1,pubchem,0,0,0,0,randonly selected as training point or test point
4-ethylmorpholine,301.15,1,CCN1CCOCC1,pubchem,0,0,0,0,randonly selected as training point or test point
"(2,2-dimethyl-1,3-dioxolan-4-yl)methanol",353.15,1,CC1(OCC(O1)CO)C,pubchem,0,0,0,0,randonly selected as training point or test point
1-ethenyl-3-methylbenzene,333.15,1,CC1=CC=CC(=C1)C=C,pubchem,0,0,0,0,randonly selected as training point or test point
triphenyl phosphite,491.15,1,C1=CC=C(C=C1)OP(OC2=CC=CC=C2)OC3=CC=CC=C3,pubchem,0,0,0,0,randonly selected as training point or test point
4-[(4-amino-3-chlorophenyl)methyl]-2-chloroaniline,386.15,1,C1=CC(=C(C=C1CC2=CC(=C(C=C2)N)Cl)Cl)N,pubchem,0,0,0,0,randonly selected as training point or test point
4-chlorobut-2-ynyl N-(3-chlorophenyl)carbamate,323.15,1,C1=CC(=CC(=C1)Cl)NC(=O)OCC#CCCl,pubchem,0,0,0,0,randonly selected as training point or test point
2-methyl-3-phenylprop-2-enal,352.15,1,CC(=CC1=CC=CC=C1)C=O,pubchem,0,0,0,0,randonly selected as training point or test point
"4-N-phenylbenzene-1,4-diamine",466.15,1,C1=CC=C(C=C1)NC2=CC=C(C=C2)N,pubchem,0,0,0,0,randonly selected as training point or test point
"4-[[4-(dimethylamino)phenyl]methyl]-N,N-dimethylaniline",484.15,1,CN(C)C1=CC=C(C=C1)CC2=CC=C(C=C2)N(C)C,pubchem,0,0,0,0,randonly selected as training point or test point
4-octyl-N-(4-octylphenyl)aniline,486.15,1,CCCCCCCCC1=CC=C(C=C1)NC2=CC=C(C=C2)CCCCCCCC,pubchem,0,0,0,0,randonly selected as training point or test point
1-isocyanato-4-[(4-isocyanatophenyl)methyl]benzene,491.15,1,C1=CC(=CC=C1CC2=CC=C(C=C2)N=C=O)N=C=O,pubchem,0,0,0,0,randonly selected as training point or test point
"1-N-phenyl-4-N-propan-2-ylbenzene-1,4-diamine",424.15,1,CC(C)NC1=CC=C(C=C1)NC2=CC=CC=C2,pubchem,0,0,0,0,randonly selected as training point or test point
4-[(4-aminophenyl)methyl]aniline,494.15,1,C1=CC(=CC=C1CC2=CC=C(C=C2)N)N,pubchem,0,0,0,0,randonly selected as training point or test point
4-(4-aminophenoxy)aniline,492.15,1,C1=CC(=CC=C1N)OC2=CC=C(C=C2)N,pubchem,0,0,0,0,randonly selected as training point or test point
benzylbenzene,403.15,1,C1=CC=C(C=C1)CC2=CC=CC=C2,pubchem,0,0,0,0,randonly selected as training point or test point
phenoxybenzene,388.15,1,C1=CC=C(C=C1)OC2=CC=CC=C2,pubchem,0,0,0,0,randonly selected as training point or test point