compound,flashpoint,pure substance,smiles,source,is_silicon,is_metallic,is_tin,is_acid,data type
undecylacetate,384.0,1,C(CCCCCCCCCC)OC(C)=O,carroll11,0,0,0,0,randonly selected as training point or test point
dodecylacetate,393.0,1,C(CCCCCCCCCCC)OC(C)=O,carroll11,0,0,0,0,randonly selected as training point or test point
isopropylacetate,275.0,1,C(C)(C)OC(C)=O,carroll11,0,0,0,0,randonly selected as training point or test point
tert-butylacetate,277.0,1,C(C)(C)(C)OC(C)=O,carroll11,0,0,0,0,randonly selected as training point or test point
sec-butylacetate,289.0,1,C(C)(CC)OC(C)=O,carroll11,0,0,0,0,randonly selected as training point or test point
isobutylacetate,291.0,1,C(C(C)C)OC(C)=O,carroll11,0,0,0,0,randonly selected as training point or test point
2-pentylacetate,305.0,1,C(CCCC)CC(=O)[O-],carroll11,0,0,0,0,randonly selected as training point or test point
isopentylacetate,309.0,1,C(CC(C)C)OC(C)=O,carroll11,0,0,0,0,randonly selected as training point or test point
tert-pentylacetate,298.0,1,C(C)(C)(CC)OC(C)=O,carroll11,0,0,0,0,randonly selected as training point or test point
cyclohexylacetate,331.0,1,C1(CCCCC1)CC(=O)[O-],carroll11,0,0,0,0,randonly selected as training point or test point
cyclodecylacetate,379.0,1,C1(CCCCCCCCC1)CC(=O)[O-],carroll11,0,0,0,0,randonly selected as training point or test point
methylpropanoate,271.0,1,COC(CC)=O,carroll11,0,0,0,0,randonly selected as training point or test point
ethylpropanoate,285.0,1,C(C)OC(CC)=O,carroll11,0,0,0,0,randonly selected as training point or test point
tert-butylpropanoate,293.0,1,C(C)(C)(C)OC(CC)=O,carroll11,0,0,0,0,randonly selected as training point or test point
propylpropanoate,295.0,1,C(CC)OC(CC)=O,carroll11,0,0,0,0,randonly selected as training point or test point
butylpropanoate,311.0,1,C(CCC)OC(CC)=O,carroll11,0,0,0,0,randonly selected as training point or test point
isopentylpropanoate,319.0,1,C(CC(C)C)OC(CC)=O,carroll11,0,0,0,0,randonly selected as training point or test point
pentylpropanoate,326.0,1,C(CCCC)OC(CC)=O,carroll11,0,0,0,0,randonly selected as training point or test point
hexylpropanoate,338.0,1,C(CCCCC)OC(CC)=O,carroll11,0,0,0,0,randonly selected as training point or test point
cyclohexylpropanoate,341.0,1,C1(CCCCC1)OC(CC)=O,carroll11,0,0,0,0,randonly selected as training point or test point
ethylbutanoate,293.0,1,C(C)OC(CCC)=O,carroll11,0,0,0,0,randonly selected as training point or test point
isopropylbutanoate,297.0,1,C(C)(C)OC(CCC)=O,carroll11,0,0,0,0,randonly selected as training point or test point
propylbutanoate,308.0,1,C(CC)OC(CCC)=O,carroll11,0,0,0,0,randonly selected as training point or test point
isobutylbutanoate,319.0,1,C(C(C)C)OC(CCC)=O,carroll11,0,0,0,0,randonly selected as training point or test point
butylbutanoate,322.0,1,C(CCC)OC(CCC)=O,carroll11,0,0,0,0,randonly selected as training point or test point
isopentylbutanoate,332.0,1,C(CC(C)C)OC(CCC)=O,carroll11,0,0,0,0,randonly selected as training point or test point
methylpentanoate,295.0,1,COC(CCCC)=O,carroll11,0,0,0,0,randonly selected as training point or test point
ethylpentanoate,308.0,1,C(C)OC(CCCC)=O,carroll11,0,0,0,0,randonly selected as training point or test point
methylhexanoate,314.0,1,COC(CCCCC)=O,carroll11,0,0,0,0,randonly selected as training point or test point
methylheptanoate,325.0,1,COC(CCCCCC)=O,carroll11,0,0,0,0,randonly selected as training point or test point
methyloctanoate,342.0,1,COC(CCCCCCC)=O,carroll11,0,0,0,0,randonly selected as training point or test point
methyl2-methylpropanoate,276.0,1,COC(C(C)C)=O,carroll11,0,0,0,0,randonly selected as training point or test point
ethyl2-methylpropanoate,286.0,1,C(C)OC(C(C)C)=O,carroll11,0,0,0,0,randonly selected as training point or test point
methylcyclopropanecarboxylate,291.0,1,COC(=O)C1CC1,carroll11,0,0,0,0,randonly selected as training point or test point
propyl2-methylpropanoate,303.0,1,C(CC)OC(C(C)C)=O,carroll11,0,0,0,0,randonly selected as training point or test point
isobutyl2-methylpropanoate,311.0,1,C(C(C)C)OC(C(C)C)=O,carroll11,0,0,0,0,randonly selected as training point or test point
methylcyclohexanecarboxylate,333.0,1,COC(=O)C1CCCCC1,carroll11,0,0,0,0,randonly selected as training point or test point
4-methyl-4-vinylbutyrolactone,348.0,1,CC1(CCC(=O)O1)C=C,carroll11,0,0,0,0,randonly selected as training point or test point
isopropylmethylether,226.0,1,C(C)(C)OC,carroll11,0,0,0,0,randonly selected as training point or test point
diethylether,233.0,1,C(C)OCC,carroll11,0,0,0,0,randonly selected as training point or test point
propyleneoxide,236.0,1,C1C(C)O1,carroll11,0,0,0,0,randonly selected as training point or test point
tert-butylmethylether,245.0,1,C(C)(C)(C)OC,carroll11,0,0,0,0,randonly selected as training point or test point
isobutylmethylether,244.0,1,C(C(C)C)OC,carroll11,0,0,0,0,randonly selected as training point or test point
2-methoxybutane,244.0,1,COC(C)CC,carroll11,0,0,0,0,randonly selected as training point or test point
ethylpropylether,248.0,1,C(C)OCCC,carroll11,0,0,0,0,randonly selected as training point or test point
tetrahydrofuran,252.0,1,O1CCCC1,carroll11,0,0,0,0,randonly selected as training point or test point
diisopropylether,245.0,1,C(C)(C)OC(C)C,carroll11,0,0,0,0,randonly selected as training point or test point
butylmethylether,263.0,1,C(CCC)OC,carroll11,0,0,0,0,randonly selected as training point or test point
2-methyltetrahydrofuran,261.0,1,CC1OCCC1,carroll11,0,0,0,0,randonly selected as training point or test point
methyltert-pentylether,266.0,1,COC(C)(C)CC,carroll11,0,0,0,0,randonly selected as training point or test point
butylethylether,268.0,1,C(CCC)OCC,carroll11,0,0,0,0,randonly selected as training point or test point
cyclopentylmethylether,272.0,1,C1(CCCC1)OC,carroll11,0,0,0,0,randonly selected as training point or test point
di-sec-butylether,288.0,1,C(C)(CC)OC(C)CC,carroll11,0,0,0,0,randonly selected as training point or test point
cyclohexeneoxide,297.0,1,C12C(CCCC1)O2,carroll11,0,0,0,0,randonly selected as training point or test point
cyclohexylmethylether,294.0,1,C1(CCCCC1)OC,carroll11,0,0,0,0,randonly selected as training point or test point
dibutylether,298.0,1,C(CCC)OCCCC,carroll11,0,0,0,0,randonly selected as training point or test point
diisopentylether,319.0,1,C(CC(C)C)OCCC(C)C,carroll11,0,0,0,0,randonly selected as training point or test point
dipentylether,330.0,1,C(CCCC)OCCCCC,carroll11,0,0,0,0,randonly selected as training point or test point
diethoxymethane,268.0,1,C(C)OCOCC,carroll11,0,0,0,0,randonly selected as training point or test point
"1,1-dimethoxyethane",256.0,1,COC(C)OC,carroll11,0,0,0,0,randonly selected as training point or test point
"1,2-dimethoxyethane",271.0,1,COCCOC,carroll11,0,0,0,0,randonly selected as training point or test point
isopropylglycidylether,306.0,1,C(C)(C)OCC1CO1,carroll11,0,0,0,0,randonly selected as training point or test point
triethoxymethane,308.0,1,C(C)OC(OCC)OCC,carroll11,0,0,0,0,randonly selected as training point or test point
"1,3-dioxolane",267.0,1,O1COCC1,carroll11,0,0,0,0,randonly selected as training point or test point
"2-methyl-1,3-dioxolane",271.0,1,CC1OCCO1,carroll11,0,0,0,0,randonly selected as training point or test point
"1,4-dioxane",284.0,1,O1CCOCC1,carroll11,0,0,0,0,randonly selected as training point or test point
propanal,246.0,1,C(CC)=O,carroll11,0,0,0,0,randonly selected as training point or test point
butanal,266.0,1,C(CCC)=O,carroll11,0,0,0,0,randonly selected as training point or test point
pentanal,281.0,1,C(CCCC)=O,carroll11,0,0,0,0,randonly selected as training point or test point
hexanal,298.0,1,C(CCCCC)=O,carroll11,0,0,0,0,randonly selected as training point or test point
heptanal,313.0,1,C(CCCCCC)=O,carroll11,0,0,0,0,randonly selected as training point or test point
octanal,324.0,1,C(CCCCCCC)=O,carroll11,0,0,0,0,randonly selected as training point or test point
nonanal,336.0,1,C(CCCCCCCC)=O,carroll11,0,0,0,0,randonly selected as training point or test point
decanal,356.0,1,C(CCCCCCCCC)=O,carroll11,0,0,0,0,randonly selected as training point or test point
undecanal,368.0,1,C(CCCCCCCCCC)=O,carroll11,0,0,0,0,randonly selected as training point or test point
dodecanal,375.0,1,C(CCCCCCCCCCC)=O,carroll11,0,0,0,0,randonly selected as training point or test point
2-methylpropanal,254.0,1,CC(C=O)C,carroll11,0,0,0,0,randonly selected as training point or test point
acetone,253.0,1,CC(=O)C,carroll11,0,0,0,0,randonly selected as training point or test point
2-butanone,266.0,1,CC(CC)=O,carroll11,0,0,0,0,randonly selected as training point or test point
2-heptanone,312.0,1,CC(CCCCC)=O,carroll11,0,0,0,0,randonly selected as training point or test point
2-octanone,329.0,1,CC(CCCCCC)=O,carroll11,0,0,0,0,randonly selected as training point or test point
2-nonanone,341.0,1,CC(CCCCCCC)=O,carroll11,0,0,0,0,randonly selected as training point or test point
2-decanone,358.0,1,CC(CCCCCCCC)=O,carroll11,0,0,0,0,randonly selected as training point or test point
2-undecanone,362.0,1,CC(CCCCCCCCC)=O,carroll11,0,0,0,0,randonly selected as training point or test point
2-dodecanone,381.0,1,CC(CCCCCCCCCC)=O,carroll11,0,0,0,0,randonly selected as training point or test point
3-pentanone,280.0,1,CCC(CC)=O,carroll11,0,0,0,0,randonly selected as training point or test point
3-hexanone,296.0,1,CCC(CCC)=O,carroll11,0,0,0,0,randonly selected as training point or test point
3-heptanone,311.0,1,CCC(CCCC)=O,carroll11,0,0,0,0,randonly selected as training point or test point
3-octanone,324.0,1,CCC(CCCCC)=O,carroll11,0,0,0,0,randonly selected as training point or test point
3-nonanone,336.0,1,CCC(CCCCCC)=O,carroll11,0,0,0,0,randonly selected as training point or test point
3-undecanone,362.0,1,CCC(CCCCCCCC)=O,carroll11,0,0,0,0,randonly selected as training point or test point
3-methyl-2-butanone,272.0,1,CC(C(C)=O)C,carroll11,0,0,0,0,randonly selected as training point or test point
cyclobutanone,283.0,1,C1(CCC1)=O,carroll11,0,0,0,0,randonly selected as training point or test point
pinacolone,278.0,1,CC(C(C)(C)C)=O,carroll11,0,0,0,0,randonly selected as training point or test point
cyclopropylmethylketone,286.0,1,C1(CC1)C(=O)C,carroll11,0,0,0,0,randonly selected as training point or test point
2-methyl-3-pentanone,289.0,1,CC(C)C(CC)=O,carroll11,0,0,0,0,randonly selected as training point or test point
4-methyl-2-pentanone,287.0,1,CC(CC(C)=O)C,carroll11,0,0,0,0,randonly selected as training point or test point
2-ethylbutanal,294.0,1,C(C)C(C=O)CC,carroll11,0,0,0,0,randonly selected as training point or test point
3-methyl-2-pentanone,285.0,1,CC(C(C)=O)CC,carroll11,0,0,0,0,randonly selected as training point or test point
cyclopentanone,299.0,1,C1(CCCC1)=O,carroll11,0,0,0,0,randonly selected as training point or test point
3-ethylcyclopentanone,319.0,1,C(C)C1CC(CC1)=O,carroll11,0,0,0,0,randonly selected as training point or test point
"trans-3,4-dimethylcyclopentanone",314.0,1,C[C@@H]1CC(C[C@H]1C)=O,carroll11,0,0,0,0,randonly selected as training point or test point
2-butylcyclopentanone,341.0,1,C(CCC)C1C(CCC1)=O,carroll11,0,0,0,0,randonly selected as training point or test point
3-methylcyclopentanone,307.0,1,CC1CC(CC1)=O,carroll11,0,0,0,0,randonly selected as training point or test point
2-methylcyclopentanone,299.0,1,CC1C(CCC1)=O,carroll11,0,0,0,0,randonly selected as training point or test point
2-pentylcyclopentanone,351.0,1,C(CCCC)C1C(CCC1)=O,carroll11,0,0,0,0,randonly selected as training point or test point
"trans-2,4-dimethylcyclopentanone",315.0,1,C[C@@H]1C(C[C@H](C1)C)=O,carroll11,0,0,0,0,randonly selected as training point or test point
"2,2-dimethylcyclopentanone",306.0,1,CC1(C(CCC1)=O)C,carroll11,0,0,0,0,randonly selected as training point or test point
2-cyclopentylcyclopentanone,363.0,1,C1(CCCC1)C1C(CCC1)=O,carroll11,0,0,0,0,randonly selected as training point or test point
"2,4,4-trimethylcyclopentanone",316.0,1,CC1C(CC(C1)(C)C)=O,carroll11,0,0,0,0,randonly selected as training point or test point
3-tert-butylcyclopentanone,337.0,1,C(C)(C)(C)C1CC(CC1)=O,carroll11,0,0,0,0,randonly selected as training point or test point
cyclopentanecarboxaldehyde,301.0,1,C1(CCCC1)C=O,carroll11,0,0,0,0,randonly selected as training point or test point
5-methyl-2-hexanone,309.0,1,CC(CCC(C)=O)C,carroll11,0,0,0,0,randonly selected as training point or test point
cyclohexanone,316.0,1,C1(CCCCC1)=O,carroll11,0,0,0,0,randonly selected as training point or test point
2-methoxycyclohexanone,342.0,1,COC1C(CCCC1)=O,carroll11,0,0,0,0,randonly selected as training point or test point
3-methylcyclohexanone,321.0,1,CC1CC(CCC1)=O,carroll11,0,0,0,0,randonly selected as training point or test point
2-ethylcyclohexanone,332.0,1,C(C)C1C(CCCC1)=O,carroll11,0,0,0,0,randonly selected as training point or test point
2-isopropylcyclohexanone,338.0,1,C(C)(C)C1C(CCCC1)=O,carroll11,0,0,0,0,randonly selected as training point or test point
2-methylcyclohexanone,319.0,1,CC1C(CCCC1)=O,carroll11,0,0,0,0,randonly selected as training point or test point
4-methylcyclohexanone,321.0,1,CC1CCC(CC1)=O,carroll11,0,0,0,0,randonly selected as training point or test point
4-ethylcyclohexanone,336.0,1,C(C)C1CCC(CC1)=O,carroll11,0,0,0,0,randonly selected as training point or test point
4-propylcyclohexanone,359.0,1,C(CC)C1CCC(CC1)=O,carroll11,0,0,0,0,randonly selected as training point or test point
4-isopropylcyclohexanone,338.0,1,C(C)(C)C1CCC(CC1)=O,carroll11,0,0,0,0,randonly selected as training point or test point
5-methyl-3-heptanone,316.0,1,CC(CC(CC)=O)CC,carroll11,0,0,0,0,randonly selected as training point or test point
cyclohexanecarboxaldehyde,314.0,1,C1(CCCCC1)C=O,carroll11,0,0,0,0,randonly selected as training point or test point
2-ethylhexanal,319.0,1,C(C)C(C=O)CCCC,carroll11,0,0,0,0,randonly selected as training point or test point
4-octanone,318.0,1,CCCC(CCCC)=O,carroll11,0,0,0,0,randonly selected as training point or test point
4-nonanone,335.0,1,CCCC(CCCCC)=O,carroll11,0,0,0,0,randonly selected as training point or test point
4-decanone,344.0,1,CCCC(CCCCCC)=O,carroll11,0,0,0,0,randonly selected as training point or test point
4-undecanone,365.0,1,CCCC(CCCCCCC)=O,carroll11,0,0,0,0,randonly selected as training point or test point
diisobutylketone,322.0,1,C(C(C)C)C(=O)CC(C)C,carroll11,0,0,0,0,randonly selected as training point or test point
cycloheptanone,329.0,1,C1(CCCCCC1)=O,carroll11,0,0,0,0,randonly selected as training point or test point
2-ethylcycloheptanone,344.0,1,C(C)C1C(CCCCC1)=O,carroll11,0,0,0,0,randonly selected as training point or test point
5-methylcyclooctanone,344.0,1,CC1CCCC(CCC1)=O,carroll11,0,0,0,0,randonly selected as training point or test point
2-methylcyclooctanone,344.0,1,CC1C(CCCCCC1)=O,carroll11,0,0,0,0,randonly selected as training point or test point
5-nonanone,333.0,1,CCCCC(CCCC)=O,carroll11,0,0,0,0,randonly selected as training point or test point
2-tert-butylcyclohexanone,345.0,1,C(C)(C)(C)C1C(CCCC1)=O,carroll11,0,0,0,0,randonly selected as training point or test point
"3,3,5,5-tetramethylcyclohexanone",346.0,1,CC1(CC(CC(C1)(C)C)=O)C,carroll11,0,0,0,0,randonly selected as training point or test point
6-undecanone,361.0,1,CCCCCC(CCCCC)=O,carroll11,0,0,0,0,randonly selected as training point or test point
dimethylcarbonate,287.0,1,COC(OC)=O,carroll11,0,0,0,0,randonly selected as training point or test point
diethylcarbonate,306.0,1,C(C)OC(OCC)=O,carroll11,0,0,0,0,randonly selected as training point or test point
dipropylcarbonate,328.0,1,C(CC)OC(OCCC)=O,carroll11,0,0,0,0,randonly selected as training point or test point
allylethylcarbonate,319.0,1,C(C=C)CCOC([O-])=O,carroll11,0,0,0,0,randonly selected as training point or test point
ethanol,285.0,1,C(C)O,carroll11,0,0,0,0,randonly selected as training point or test point
1-propanol,296.0,1,C(CC)O,carroll11,0,0,0,0,randonly selected as training point or test point
1-butanol,307.0,1,C(CCC)O,carroll11,0,0,0,0,randonly selected as training point or test point
1-pentanol,322.0,1,C(CCCC)O,carroll11,0,0,0,0,randonly selected as training point or test point
1-hexanol,332.0,1,C(CCCCC)O,carroll11,0,0,0,0,randonly selected as training point or test point
1-heptanol,343.0,1,C(CCCCCC)O,carroll11,0,0,0,0,randonly selected as training point or test point
1-nonanol,371.0,1,C(CCCCCCCC)O,carroll11,0,0,0,0,randonly selected as training point or test point
1-decanol,381.0,1,C(CCCCCCCCC)O,carroll11,0,0,0,0,randonly selected as training point or test point
1-dodecanol,400.0,1,C(CCCCCCCCCCC)O,carroll11,0,0,0,0,randonly selected as training point or test point
1-undecanol,388.0,1,C(CCCCCCCCCC)O,carroll11,0,0,0,0,randonly selected as training point or test point
2-propanol,285.0,1,CC(C)O,carroll11,0,0,0,0,randonly selected as training point or test point
2-butanol,297.0,1,CC(CC)O,carroll11,0,0,0,0,randonly selected as training point or test point
2-pentanol,307.0,1,CC(CCC)O,carroll11,0,0,0,0,randonly selected as training point or test point
2-hexanol,319.0,1,CC(CCCC)O,carroll11,0,0,0,0,randonly selected as training point or test point
2-heptanol,332.0,1,CC(CCCCC)O,carroll11,0,0,0,0,randonly selected as training point or test point
2-octanol,345.0,1,CC(CCCCCC)O,carroll11,0,0,0,0,randonly selected as training point or test point
2-nonanol,355.0,1,CC(CCCCCCC)O,carroll11,0,0,0,0,randonly selected as training point or test point
2-decanol,358.0,1,CC(CCCCCCCC)O,carroll11,0,0,0,0,randonly selected as training point or test point
2-undecanol,380.0,1,CC(CCCCCCCCC)O,carroll11,0,0,0,0,randonly selected as training point or test point
2-dodecanol,386.0,1,CC(CCCCCCCCCC)O,carroll11,0,0,0,0,randonly selected as training point or test point
3-pentanol,306.0,1,CCC(CC)O,carroll11,0,0,0,0,randonly selected as training point or test point
3-hexanol,318.0,1,CCC(CCC)O,carroll11,0,0,0,0,randonly selected as training point or test point
3-heptanol,328.0,1,CCC(CCCC)O,carroll11,0,0,0,0,randonly selected as training point or test point
3-nonanol,352.0,1,CCC(CCCCCC)O,carroll11,0,0,0,0,randonly selected as training point or test point
3-decanol,372.0,1,CCC(CCCCCCC)O,carroll11,0,0,0,0,randonly selected as training point or test point
3-octanol,341.0,1,CCC(CCCCC)O,carroll11,0,0,0,0,randonly selected as training point or test point
tert-butylalcohol,284.0,1,C(C)(C)(C)O,carroll11,0,0,0,0,randonly selected as training point or test point
2-methyl-2-butanol,294.0,1,CC(C)(CC)O,carroll11,0,0,0,0,randonly selected as training point or test point
allylalcohol,295.0,1,C(C=C)O,carroll11,0,0,0,0,randonly selected as training point or test point
2-methyl-1-propanol,301.0,1,CC(CO)C,carroll11,0,0,0,0,randonly selected as training point or test point
3-methyl-2-butanol,300.0,1,CC(C(C)O)C,carroll11,0,0,0,0,randonly selected as training point or test point
2-methyl-3-pentanol,319.0,1,CC(C)C(CC)O,carroll11,0,0,0,0,randonly selected as training point or test point
2-methyl-1-butanol,316.0,1,CC(CO)CC,carroll11,0,0,0,0,randonly selected as training point or test point
3-methyl-1-butanol,316.0,1,CC(CCO)C,carroll11,0,0,0,0,randonly selected as training point or test point
4-methyl-2-pentanol,314.0,1,CC(CC(C)O)C,carroll11,0,0,0,0,randonly selected as training point or test point
3-methyl-2-pentanol,314.0,1,CC(C(C)O)CC,carroll11,0,0,0,0,randonly selected as training point or test point
cyclopentanol,324.0,1,C1(CCCC1)O,carroll11,0,0,0,0,randonly selected as training point or test point
2-methyl-1-pentanol,324.0,1,CC(CO)CCC,carroll11,0,0,0,0,randonly selected as training point or test point
2-ethyl-1-butanol,330.0,1,C(C)C(CO)CC,carroll11,0,0,0,0,randonly selected as training point or test point
4-methyl-1-pentanol,324.0,1,CC(CCCO)C,carroll11,0,0,0,0,randonly selected as training point or test point
3-methyl-1-pentanol,331.0,1,CC(CCO)CC,carroll11,0,0,0,0,randonly selected as training point or test point
cyclohexanol,336.0,1,C1(CCCCC1)O,carroll11,0,0,0,0,randonly selected as training point or test point
cyclopentylmethanol,335.0,1,C1(CCCC1)CO,carroll11,0,0,0,0,randonly selected as training point or test point