compound,flashpoint,pure substance,smiles,source,is_silicon,is_metallic,is_tin,is_acid,data type
NIOBIUM(V) ETHOXIDE,347.15,1,CC[O-].CC[O-].CC[O-].CC[O-].CC[O-].[Nb+5],gelest_metal-organics,0,1,0,0,randonly selected as training point or test point
TANTALUM(V) n-BUTOXIDE,339.15,1,CCCC[O-].CCCC[O-].CCCC[O-].CCCC[O-].CCCC[O-].[Ta+5],gelest_metal-organics,0,1,0,0,randonly selected as training point or test point
TANTALUM(V) ETHOXIDE,313.15,1,CC[O-].CC[O-].CC[O-].CC[O-].CC[O-].[Ta+5],gelest_metal-organics,0,1,0,0,randonly selected as training point or test point
TITANIUM n-BUTOXIDE,349.15,1,CCCC[O-].CCCC[O-].CCCC[O-].CCCC[O-].[Ti+4],gelest_metal-organics,0,1,0,0,randonly selected as training point or test point
TITANIUM CHLORIDE TRIISOPROPOXIDE,295.15,1,CC(C)[O-].CC(C)[O-].CC(C)[O-].[Cl-].[Ti+4],gelest_metal-organics,0,1,0,0,randonly selected as training point or test point
TITANIUM ETHOXIDE,301.15,1,CC[O-].CC[O-].CC[O-].CC[O-].[Ti+4],gelest_metal-organics,0,1,0,0,randonly selected as training point or test point
TITANIUM ETHOXIDE,303.15,1,CC[O-].CC[O-].CC[O-].CC[O-].[Ti+4],gelest_metal-organics,0,1,0,0,randonly selected as training point or test point
TITANIUM DIISOPROPOXIDE BIS(ETHYLACETOACETATE),300.15,1,CC(C)[O-].CC(C)[O-].CCCC(=O)CC(=O)[O-].CCCC(=O)CC(=O)[O-].[Ti+4],gelest_metal-organics,0,1,0,0,randonly selected as training point or test point
TITANIUM ISOBUTOXIDE,350.15,1,CC(C)C[O-].CC(C)C[O-].CC(C)C[O-].CC(C)C[O-].[Ti+4],gelest_metal-organics,0,1,0,0,randonly selected as training point or test point
TITANIUM ISOPROPOXIDE,298.15,1,CC(C)[O-].CC(C)[O-].CC(C)[O-].CC(C)[O-].[Ti+4],gelest_metal-organics,0,1,0,0,randonly selected as training point or test point
TITANIUM METHOXIDE,321.15,1,C[O-].C[O-].C[O-].C[O-].[Ti+4],gelest_metal-organics,0,1,0,0,randonly selected as training point or test point
TITANIUM METHYLPHENOXIDE,339.15,1,Cc1ccccc1[O-].Cc1ccccc1[O-].Cc1ccccc1[O-].Cc1ccccc1[O-].[Ti+4],gelest_metal-organics,0,1,0,0,randonly selected as training point or test point
TITANIUM n-PROPOXIDE,318.15,1,CCC[O-].CCC[O-].CCC[O-].CCC[O-].[Ti+4],gelest_metal-organics,0,1,0,0,randonly selected as training point or test point
TITANIUM TRIISOSTEAROYLISOPROPOXIDE,366.15,1,CC(C)CCCCCCCCCCCCCCC(=O)C(C(=O)CCCCCCCCCCCCCCC(C)C)(C(=O)CCCCCCCCCCCCCCC(C)C)C(C)[O-].CC(C)CCCCCCCCCCCCCCC(=O)C(C(=O)CCCCCCCCCCCCCCC(C)C)(C(=O)CCCCCCCCCCCCCCC(C)C)C(C)[O-].CC(C)CCCCCCCCCCCCCCC(=O)C(C(=O)CCCCCCCCCCCCCCC(C)C)(C(=O)CCCCCCCCCCCCCCC(C)C)C(C)[O-].CC(C)CCCCCCCCCCCCCCC(=O)C(C(=O)CCCCCCCCCCCCCCC(C)C)(C(=O)CCCCCCCCCCCCCCC(C)C)C(C)[O-].[Ti+4],gelest_metal-organics,0,1,0,0,randonly selected as training point or test point
ZIRCONIUM t-BUTOXIDE,358.15,1,CC(C)(C)[O-].CC(C)(C)[O-].CC(C)(C)[O-].CC(C)(C)[O-].[Zr+4],gelest_metal-organics,0,1,0,0,randonly selected as training point or test point
CALCIUM 2-ETHYLHEXANOATE,400.15,1,CCCCC(CC)C(=O)[O-].CCCCC(CC)C(=O)[O-].[Ca+2],gelest_metal-organics,0,1,0,0,randonly selected as training point or test point
SILVER NEODECANOATE,375.15,1,CC(C)(C)CCCCCC(=O)[O-].[Ag+],gelest_metal-organics,0,1,0,0,randonly selected as training point or test point
ZINC 2-ETHYLHEXANOATE,400.15,1,CCCCC(CC)C(=O)[O-].CCCCC(CC)C(=O)[O-].[Zn+2],gelest_metal-organics,0,1,0,0,randonly selected as training point or test point
ZINC NEODECANOATE,375.15,1,CC(C)(C)CCCCCC(=O)[O-].CC(C)(C)CCCCCC(=O)[O-].[Zn+2],gelest_metal-organics,0,1,0,0,randonly selected as training point or test point
DIMETHYLALUMINUM CHLORIDE,255.15,1,C[Al](C)Cl,gelest_metal-organics,0,1,0,0,randonly selected as training point or test point
DIMETHYLISOPROPOXYALUMINUM,278.15,1,CC(C)O[Al](C)C,gelest_metal-organics,0,1,0,0,randonly selected as training point or test point
DIMETHYLCADMIUM,255.15,1,C[Cd]C,gelest_metal-organics,0,1,0,0,randonly selected as training point or test point
VINYLFERROCENE,335.15,1,C=C[c-]1cccc1.[Fe+2].c1cc[cH-]c1,gelest_metal-organics,0,1,0,0,randonly selected as training point or test point
TRIMETHYLGALLIUM,272.15,1,C[Ga](C)C,gelest_metal-organics,0,1,0,0,randonly selected as training point or test point
TRIS(DIMETHYLAMINO)GALLIUM,329.15,1,CN(C)[Ga](N(C)C)N(C)C,gelest_metal-organics,0,1,0,0,randonly selected as training point or test point
HAFNIUM TETRAKIS(ETHYLMETHYLAMIDE),283.15,1,CC[N-]C.CC[N-]C.CC[N-]C.CC[N-]C.[Hf+4],gelest_metal-organics,0,1,0,0,randonly selected as training point or test point
DICYCLOHEXYLPHOSPHINE,383.15,1,C1CCC(PC2CCCCC2)CC1,gelest_metal-organics,0,0,0,0,randonly selected as training point or test point
DIETHYLPHOSPHITE,363.15,1,CCOP([O-])OCC,gelest_metal-organics,0,0,0,0,randonly selected as training point or test point
DIPHENYLPHOSPHINE,383.15,1,c1ccc(Pc2ccccc2)cc1,gelest_metal-organics,0,0,0,0,randonly selected as training point or test point
DIPHENYLPHOSPHORYL AZIDE,385.15,1,[N-]=[N+]=NP(=O)(c1ccccc1)c1ccccc1,gelest_metal-organics,0,0,0,0,randonly selected as training point or test point
TETRADECYL(TRIHEXYL)PHOSPHONIUM CHLORIDE,391.15,1,CCCCCCCCCCCCCC[P+](CCCCCC)(CCCCCC)CCCCCC.[Cl-],gelest_metal-organics,0,0,0,0,randonly selected as training point or test point
TRIETHYLPHOSPHATE,389.15,1,CCOP(=O)(OCC)OCC,gelest_metal-organics,0,0,0,0,randonly selected as training point or test point
TRIETHYLPHOSPHITE,327.15,1,CCOP(OCC)OCC,gelest_metal-organics,0,0,0,0,randonly selected as training point or test point
TRIMETHYLPHOSPHITE,300.15,1,COP(OC)OC,gelest_metal-organics,0,0,0,0,randonly selected as training point or test point
TRIOCTYLPHOSPHINE,420.15,1,CCCCCCCCP(CCCCCCCC)CCCCCCCC,gelest_metal-organics,0,0,0,0,randonly selected as training point or test point
TRIPHENYLPHOSPHINE,455.15,1,c1ccc(P(c2ccccc2)c2ccccc2)cc1,gelest_metal-organics,0,0,0,0,randonly selected as training point or test point
TRIS(DIETHYLAMINO)(t-BUTYLIMINO) TANTALUM,319.15,1,CCN(CC)[Ta](=NC(C)(C)C)(N(CC)CC)N(CC)CC,gelest_metal-organics,0,1,0,0,randonly selected as training point or test point
TITANIUM TETRAKIS(DIETHYLAMIDE),310.15,1,CC[N-]CC.CC[N-]CC.CC[N-]CC.CC[N-]CC.[Ti+4],gelest_metal-organics,0,1,0,0,randonly selected as training point or test point
TITANIUM TETRAKIS(DIMETHYLAMIDE),281.15,1,C[N-]C.C[N-]C.C[N-]C.C[N-]C.[Ti+4],gelest_metal-organics,0,1,0,0,randonly selected as training point or test point
TITANIUM TETRAKIS(ETHYLMETHYLAMIDE),283.15,1,CC[N-]C.CC[N-]C.CC[N-]C.CC[N-]C.[Ti+4],gelest_metal-organics,0,1,0,0,randonly selected as training point or test point
ZIRCONIUM TETRAKIS(ETHYLMETHYLAMIDE),283.15,1,CC[N-]C.CC[N-]C.CC[N-]C.CC[N-]C.[Zr+4],gelest_metal-organics,0,1,0,0,randonly selected as training point or test point
TETRAETHYLLEAD,346.15,1,CC[Pb](CC)(CC)CC,gelest_metal-organics,0,1,0,0,randonly selected as training point or test point
TRIS(TRIMETHYLSILOXY)BORON,315.15,1,C[Si](C)(C)OB(O[Si](C)(C)C)O[Si](C)(C)C,gelest_metal-organics,1,1,0,0,randonly selected as training point or test point
Trichlorosilane,245.0,1,Cl[SiH](Cl)Cl,pan13,1,1,0,0,randonly selected as training point or test point
Dichlorosilane,236.0,1,Cl[SiH2]Cl,pan13,1,1,0,0,randonly selected as training point or test point
Methyltrichlorosilane,276.0,1,C[Si](Cl)(Cl)Cl,pan13,1,1,0,0,randonly selected as training point or test point
Methyldichlorosilane,241.0,1,C[SiH](Cl)Cl,pan13,1,1,0,0,randonly selected as training point or test point
Dichloromethylmethyldichlorosilane,301.0,1,ClC(Cl)[Si](Cl)(Cl)C,pan13,1,1,0,0,randonly selected as training point or test point
Ethyltrichlorosilane,295.0,1,C(C)[Si](Cl)(Cl)Cl,pan13,1,1,0,0,randonly selected as training point or test point
Dimethyldichlorosilane,257.0,1,C[Si](Cl)(Cl)C,pan13,1,1,0,0,randonly selected as training point or test point
Dimethylchlorosilane,245.0,1,C[SiH](Cl)C,pan13,1,1,0,0,randonly selected as training point or test point
"1,1,1-Trifluoropropyltrichlorosilane",288.0,1,FC(C(C)[Si](Cl)(Cl)Cl)(F)F,pan13,1,1,0,0,randonly selected as training point or test point
Allyltrichlorosilane,304.0,1,C(C=C)[Si](Cl)(Cl)Cl,pan13,1,1,0,0,randonly selected as training point or test point
Methylvinyldichlorosilane,272.0,1,CC=C[SiH](Cl)Cl,pan13,1,1,0,0,randonly selected as training point or test point
3-Chloropropyltrichlorosilane,357.0,1,ClCCC[Si](Cl)(Cl)Cl,pan13,1,1,0,0,randonly selected as training point or test point
Bromomethyldimethylchlorosilane,314.0,1,BrC[Si](Cl)(C)C,pan13,1,1,0,0,randonly selected as training point or test point
Chloromethyldimethylchlorosilane,295.0,1,ClC[Si](Cl)(C)C,pan13,1,1,0,0,randonly selected as training point or test point
Trimethylbromosilane,270.0,1,C[Si](Br)(C)C,pan13,1,1,0,0,randonly selected as training point or test point
Trimethylchlorosilane,255.0,1,C[Si](Cl)(C)C,pan13,1,1,0,0,randonly selected as training point or test point
Trimethoxysilane,264.0,1,CO[SiH](OC)OC,pan13,1,1,0,0,randonly selected as training point or test point
Trimethylsilane,204.0,1,C[SiH](C)C,pan13,1,1,0,0,randonly selected as training point or test point
Cyanoethylmethyldichlorosilane,333.0,1,C(#N)CC[Si](Cl)(Cl)C,pan13,1,1,0,0,randonly selected as training point or test point
Allylmethyldichlorosilane,300.0,1,C(C=C)C[SiH](Cl)Cl,pan13,1,1,0,0,randonly selected as training point or test point
3-Chloropropylmethyldichlorosilane,359.0,1,ClCCC[Si](Cl)(Cl)C,pan13,1,1,0,0,randonly selected as training point or test point
t-Butyltrichlorosilane,294.0,1,C(C)(C)(C)[Si](Cl)(Cl)Cl,pan13,1,1,0,0,randonly selected as training point or test point
Isobutyltrichlorosilane,310.0,1,C(C(C)C)[Si](Cl)(Cl)Cl,pan13,1,1,0,0,randonly selected as training point or test point
n-Butyltrichlorosilane,327.0,1,C(CCC)[Si](Cl)(Cl)Cl,pan13,1,1,0,0,randonly selected as training point or test point
n-Propylmethyldichlorosilane,300.0,1,C(CC)[Si](Cl)(Cl)C,pan13,1,1,0,0,randonly selected as training point or test point
Bromomethyltrimethylsilane,289.0,1,BrC[Si](C)(C)C,pan13,1,1,0,0,randonly selected as training point or test point
Ethyldimethylchlorosilane,269.0,1,C(C)[Si](Cl)(C)C,pan13,1,1,0,0,randonly selected as training point or test point
"1,3-Dichlorotetramethyldisiloxane",288.0,1,Cl[Si](O[Si](Cl)(C)C)(C)C,pan13,1,1,0,0,randonly selected as training point or test point
Dimethyldimethoxysilane,265.0,1,C[Si](OC)(OC)C,pan13,1,1,0,0,randonly selected as training point or test point
Methyltrimethoxysilane,284.0,1,C[Si](OC)(OC)OC,pan13,1,1,0,0,randonly selected as training point or test point
Tetramethoxysilane,294.0,1,CO[Si](OC)(OC)OC,pan13,1,1,0,0,randonly selected as training point or test point
Tetramethylsilane,245.0,1,C[Si](C)(C)C,pan13,1,1,0,0,randonly selected as training point or test point
"(N,N-Dimethylamino)dimethylsilane",260.0,1,CN(C)[SiH](C)C,pan13,1,1,0,0,randonly selected as training point or test point
"1,1,3,3-Tetramethyldisiloxane",251.0,1,C[SiH](O[SiH](C)C)C,pan13,1,1,0,0,randonly selected as training point or test point
Tetramethyldisilazane,284.0,1,CN([Si](C)(C)C)[SiH3],pan13,1,1,0,0,randonly selected as training point or test point
Cyclopentyltrichlorosilane,350.0,1,C1(CCCC1)[Si](Cl)(Cl)Cl,pan13,1,1,0,0,randonly selected as training point or test point
Trimethylsilyltrifluoroacetate,273.0,1,C[Si](C)(C)OC(C(F)(F)F)=O,pan13,1,1,0,0,randonly selected as training point or test point
Cyclopentyldichlorosilane,316.0,1,C1(CCCC1)[SiH](Cl)Cl,pan13,1,1,0,0,randonly selected as training point or test point
Allyldimethylchlorosilane,278.0,1,C(C=C)[Si](Cl)(C)C,pan13,1,1,0,0,randonly selected as training point or test point
3-Chloro-2-methylpropylmethyldichlorosilane,363.0,1,ClCC(C[Si](Cl)(Cl)C)C,pan13,1,1,0,0,randonly selected as training point or test point
n-Butylmethyldichlorosilane,303.0,1,C(CCC)[Si](Cl)(Cl)C,pan13,1,1,0,0,randonly selected as training point or test point
Methylvinyldimethoxysilane,277.0,1,CC=C[SiH](OC)OC,pan13,1,1,0,0,randonly selected as training point or test point
Trimethylvinylsilane,239.0,1,CC(=C(C)C)[SiH3],pan13,1,1,0,0,randonly selected as training point or test point
Diethylmethylchlorosilane,288.0,1,C(C)[Si](Cl)(C)CC,pan13,1,1,0,0,randonly selected as training point or test point
Chloromethyldimethylethoxysilane,299.0,1,ClC[Si](OCC)(C)C,pan13,1,1,0,0,randonly selected as training point or test point
Ethyltrimethoxysilane,300.0,1,C(C)[Si](OC)(OC)OC,pan13,1,1,0,0,randonly selected as training point or test point
"(N,N-Dimethylamino)trimethylsilane",254.0,1,CN(C)[Si](C)(C)C,pan13,1,1,0,0,randonly selected as training point or test point
Bis(dimethylamino)methylsilane,270.0,1,CN(C)C(N(C)C)[SiH3],pan13,1,1,0,0,randonly selected as training point or test point
Pentamethyldisiloxane,254.0,1,C[SiH](O[Si](C)(C)C)C,pan13,1,1,0,0,randonly selected as training point or test point
Phenyldichlorosilane,333.0,1,C1(=CC=CC=C1)[SiH](Cl)Cl,pan13,1,1,0,0,randonly selected as training point or test point
Phenylsilane,281.0,1,C1(=CC=CC=C1)[SiH3],pan13,1,1,0,0,randonly selected as training point or test point
1-Hexenyltrichlorosilane,333.0,1,C(=CCCCC)[Si](Cl)(Cl)Cl,pan13,1,1,0,0,randonly selected as training point or test point
Bis(chloromethyl)tetramethyldisiloxane,346.0,1,ClC[Si](O[Si](C)(C)C)(C)CCl,pan13,1,1,0,0,randonly selected as training point or test point
N-Methyl-N-trimethylsilyltrifluoroacetamide,298.0,1,CN(C(C(F)(F)F)=O)[Si](C)(C)C,pan13,1,1,0,0,randonly selected as training point or test point
Propargyloxytrimethylsilane,300.0,1,C(C#C)O[Si](C)(C)C,pan13,1,1,0,0,randonly selected as training point or test point
Dimethyldiacetoxysilane,310.0,1,C[Si](OC(C)=O)(OC(C)=O)C,pan13,1,1,0,0,randonly selected as training point or test point
Divinyldimethylsilane,281.0,1,C(=C)[Si](C)(C)C=C,pan13,1,1,0,0,randonly selected as training point or test point
n-Hexyltrichlorosilane,358.0,1,C(CCCCC)[Si](Cl)(Cl)Cl,pan13,1,1,0,0,randonly selected as training point or test point
Vinyldimethylethoxysilane,277.0,1,C(=C)[Si](OCC)(C)C,pan13,1,1,0,0,randonly selected as training point or test point
"1,1-Dimethyl-1-sila-2-oxacyclohexane",287.0,1,C[Si]1(OCCCC1)C,pan13,1,1,0,0,randonly selected as training point or test point
Allyloxytrimethylsilane,273.0,1,C(C=C)O[Si](C)(C)C,pan13,1,1,0,0,randonly selected as training point or test point
Acetoxymethyltrimethylsilane,293.0,1,C(C)(=O)OC[Si](C)(C)C,pan13,1,1,0,0,randonly selected as training point or test point
Allyltrimethylsilane,280.0,1,C(C=C)[Si](C)(C)C,pan13,1,1,0,0,randonly selected as training point or test point
Triethylchlorosilane,303.0,1,C(C)[Si](Cl)(CC)CC,pan13,1,1,0,0,randonly selected as training point or test point
t-Butyldimethylchlorosilane,295.0,1,C(C)(C)(C)[Si](Cl)(C)C,pan13,1,1,0,0,randonly selected as training point or test point
3-Chloropropyltrimethoxysilane,348.0,1,ClCCC[Si](OC)(OC)OC,pan13,1,1,0,0,randonly selected as training point or test point
Trimethyl-n-propoxysilane,283.0,1,C[Si](OCCC)(C)C,pan13,1,1,0,0,randonly selected as training point or test point
t-Butyldimethylsilanol,318.0,1,C(C)(C)(C)[Si](O)(C)C,pan13,1,1,0,0,randonly selected as training point or test point
Dimethyldiethoxysilane,284.0,1,C[Si](OCC)(OCC)C,pan13,1,1,0,0,randonly selected as training point or test point
Triethylsilane,270.0,1,C(C)[SiH](CC)CC,pan13,1,1,0,0,randonly selected as training point or test point
Hexylsilane,285.0,1,C(CCCCC)[SiH3],pan13,1,1,0,0,randonly selected as training point or test point
t-Butyldimethylsilane,251.0,1,C(C)(C)(C)[SiH](C)C,pan13,1,1,0,0,randonly selected as training point or test point
Bis(dimethylamino)dimethylsilane,266.0,1,CN(C)[Si](C)(C)N(C)C,pan13,1,1,0,0,randonly selected as training point or test point
Hexamethylcyclotrisiloxane,305.0,1,C[Si]1(O[Si](O[Si](O1)(C)C)(C)C)C,pan13,1,1,0,0,randonly selected as training point or test point
Hexamethyldisilthiane,299.0,1,C[Si](S[Si](C)(C)C)(C)C,pan13,1,1,0,0,randonly selected as training point or test point
Hexamethyldisilane,272.0,1,C[Si]([Si](C)(C)C)(C)C,pan13,1,1,0,0,randonly selected as training point or test point
Tris(dimethylamino)silane,298.0,1,CN(C)[SiH](N(C)C)N(C)C,pan13,1,1,0,0,randonly selected as training point or test point
Hexamethyltrisiloxane,293.0,1,C[Si](O[SiH2]O[Si](C)(C)C)(C)C,pan13,1,1,0,0,randonly selected as training point or test point
Phenylmethyldichlorosilane,355.0,1,C1(=CC=CC=C1)C[SiH](Cl)Cl,pan13,1,1,0,0,randonly selected as training point or test point
Phenylmethylchlorosilane,355.0,1,C1(=CC=CC=C1)C[SiH2]Cl,pan13,1,1,0,0,randonly selected as training point or test point
Trivinylmethylsilane,288.0,1,C(=C)C(C=C)(C=C)[SiH3],pan13,1,1,0,0,randonly selected as training point or test point
Cyclohexylmethyldichlorosilane,355.0,1,C1(CCCCC1)C[SiH](Cl)Cl,pan13,1,1,0,0,randonly selected as training point or test point
"1-(Trimethylsiloxy)-1,3-butadiene",298.0,1,C[Si](OC=CC=C)(C)C,pan13,1,1,0,0,randonly selected as training point or test point
2-Chloromethyl-3-trimethylsilyl-1-propene,316.0,1,ClCC(=C)C[Si](C)(C)C,pan13,1,1,0,0,randonly selected as training point or test point
n-Hexylmethyldichlorosilane,358.0,1,C(CCCCC)[Si](Cl)(Cl)C,pan13,1,1,0,0,randonly selected as training point or test point
Vinylmethyldiethoxysilane,289.0,1,C(=C)C[SiH](OCC)OCC,pan13,1,1,0,0,randonly selected as training point or test point
Vinyldiethylmethylsilane,288.0,1,C(=C)[Si](C)(CC)CC,pan13,1,1,0,0,randonly selected as training point or test point
N-(Trimethylsilyl)morpholine,300.0,1,C[Si](N1CCOCC1)(C)C,pan13,1,1,0,0,randonly selected as training point or test point
Bis(trimethylsilyl)carbodiimide,315.0,1,C[Si](C)(C)N=C=N[Si](C)(C)C,pan13,1,1,0,0,randonly selected as training point or test point
t-Butoxytrimethylsilane,287.0,1,C(C)(C)(C)O[Si](C)(C)C,pan13,1,1,0,0,randonly selected as training point or test point
Vinylpentamethyldisiloxane,285.0,1,C(=C)[Si](O[Si](C)(C)C)(C)C,pan13,1,1,0,0,randonly selected as training point or test point
Isobutyltrimethoxysilane,315.0,1,C(C(C)C)[Si](OC)(OC)OC,pan13,1,1,0,0,randonly selected as training point or test point
Methyltriethoxysilane,297.0,1,C[Si](OCC)(OCC)OCC,pan13,1,1,0,0,randonly selected as training point or test point
(Diethylamino)trimethylsilane,283.0,1,C(C)N(CC)[Si](C)(C)C,pan13,1,1,0,0,randonly selected as training point or test point
Bis(trimethylsilyl)methane,285.0,1,C[Si](C)(C)C[Si](C)(C)C,pan13,1,1,0,0,randonly selected as training point or test point
Phenylethyldichlorosilane,365.0,1,C1(=CC=CC=C1)CC[SiH](Cl)Cl,pan13,1,1,0,0,randonly selected as training point or test point
Phenyldimethylchlorosilane,334.0,1,C1(=CC=CC=C1)[Si](Cl)(C)C,pan13,1,1,0,0,randonly selected as training point or test point
"(N,N-Dimethylamino)triethylsilane",299.0,1,CN(C)[Si](CC)(CC)CC,pan13,1,1,0,0,randonly selected as training point or test point
Tetravinylsilane,291.0,1,C(=C)[Si](C=C)(C=C)C=C,pan13,1,1,0,0,randonly selected as training point or test point
Phenyldimethylsilane,311.0,1,C1(=CC=CC=C1)[SiH](C)C,pan13,1,1,0,0,randonly selected as training point or test point
Ethyltriacetoxysilane,377.0,1,C(C)[Si](OC(C)=O)(OC(C)=O)OC(C)=O,pan13,1,1,0,0,randonly selected as training point or test point
Cyclopentadienyltrimethylsilane,302.0,1,C1(C=CC=C1)[Si](C)(C)C,pan13,1,1,0,0,randonly selected as training point or test point
3-(Trimethylsilyl)cyclopentene,299.0,1,C[Si](C1C=CCC1)(C)C,pan13,1,1,0,0,randonly selected as training point or test point
"(2,4-Pentadienyl)trimethylsilane",291.0,1,C(C=CC=C)[Si](C)(C)C,pan13,1,1,0,0,randonly selected as training point or test point
n-Octyltrichlorosilane,369.0,1,C(CCCCCCC)[Si](Cl)(Cl)Cl,pan13,1,1,0,0,randonly selected as training point or test point
n-Heptylmethyldichlorosilane,339.0,1,C(CCCCCC)[Si](Cl)(Cl)C,pan13,1,1,0,0,randonly selected as training point or test point
Triethylacetoxysilane,314.0,1,C(C)C(C(=O)O[SiH3])(CC)CC,pan13,1,1,0,0,randonly selected as training point or test point
Vinyltriethoxysilane,307.0,1,C(=C)[Si](OCC)(OCC)OCC,pan13,1,1,0,0,randonly selected as training point or test point
Vinyltriethylsilane,298.0,1,C(=C)[Si](CC)(CC)CC,pan13,1,1,0,0,randonly selected as training point or test point
"1,3-Divinyltetramethyldisilazane",307.0,1,C(=C)[Si](N[Si](C=C)(C)C)(C)C,pan13,1,1,0,0,randonly selected as training point or test point
Tetraethoxysilane,323.0,1,C(C)O[Si](OCC)(OCC)OCC,pan13,1,1,0,0,randonly selected as training point or test point