compound,flashpoint,pure substance,smiles,source,is_silicon,is_metallic,is_tin,is_acid,data type
2-[ethyl(2-hydroxyethyl)amino]ethanol,371.15,1,CCN(CCO)CCO,pubchem,0,0,0,0,randonly selected as training point or test point
trisodium;2-[2-[bis(carboxylatomethyl)amino]ethyl-(2-hydroxyethyl)amino]acetate,373.15,1,C(CN(CC(=O)[O-])CC(=O)[O-])N(CCO)CC(=O)[O-].[Na+].[Na+].[Na+],pubchem,0,1,0,0,randonly selected as training point or test point
tris(2-chloroethyl) phosphite,411.15,1,C(CCl)OP(OCCCl)OCCCl,pubchem,0,0,0,0,randonly selected as training point or test point
benzyl acetate,364.15,1,CC(=O)OCC1=CC=CC=C1,pubchem,0,0,0,0,randonly selected as training point or test point
2-phenylacetonitrile,375.15,1,C1=CC=C(C=C1)CC#N,pubchem,0,0,0,0,randonly selected as training point or test point
2-piperazin-1-ylethanamine,366.15,1,C1CN(CCN1)CCN,pubchem,0,0,0,0,randonly selected as training point or test point
N-[4-(2-chloroacetyl)phenyl]acetamide,383.15,1,CC(=O)NC1=CC=C(C=C1)C(=O)CCl,pubchem,0,0,0,0,randonly selected as training point or test point
1-methoxy-4-prop-2-enylbenzene,354.15,1,COC1=CC=C(C=C1)CC=C,pubchem,0,0,0,0,randonly selected as training point or test point
5-ethenyl-2-methylpyridine,347.15,1,CC1=NC=C(C=C1)C=C,pubchem,0,0,0,0,randonly selected as training point or test point
ethyl prop-2-enoate,282.15,1,CCOC(=O)C=C,pubchem,0,0,0,0,randonly selected as training point or test point
dibutyl butanedioate,408.15,1,CCCCOC(=O)CCC(=O)OCCCC,pubchem,0,0,0,0,randonly selected as training point or test point
"3,7-dimethylocta-2,6-dienal",375.15,1,CC(=CCCC(=CC=O)C)C,pubchem,0,0,0,0,randonly selected as training point or test point
butyl prop-2-enoate,322.15,1,CCCCOC(=O)C=C,pubchem,0,0,0,0,randonly selected as training point or test point
trichloro(propyl)silane,310.15,1,CCC[Si](Cl)(Cl)Cl,pubchem,1,1,0,0,randonly selected as training point or test point
"2,4,4-trimethylpentane-2-thiol",319.15,1,CC(C)(C)CC(C)(C)S,pubchem,0,0,0,0,randonly selected as training point or test point
butanoyl chloride,295.15,1,CCCC(=O)Cl,pubchem,0,0,0,0,randonly selected as training point or test point
ethyl acetate,269.15,1,CCOC(=O)C,pubchem,0,0,0,0,randonly selected as training point or test point
4-methylpent-3-en-2-one,296.15,1,CC(=CC(=O)C)C,pubchem,0,0,0,0,randonly selected as training point or test point
ethyl 3-oxobutanoate,330.15,1,CCOC(=O)CC(=O)C,pubchem,0,0,0,0,randonly selected as training point or test point
aniline;hydrochloride,466.15,1,C1=CC=C(C=C1)N.Cl,pubchem,0,0,0,0,randonly selected as training point or test point
hexyl 2-methylprop-2-enoate,355.15,1,CCCCCCOC(=O)C(=C)C,pubchem,0,0,0,0,randonly selected as training point or test point
N-(2-hydroxyethyl)acetamide,450.15,1,CC(=O)NCCO,pubchem,0,0,0,0,randonly selected as training point or test point
"1,3-dichloropropane",294.15,1,C(CCl)CCl,pubchem,0,0,0,0,randonly selected as training point or test point
cyclopentene,239.15,1,C1CC=CC1,pubchem,0,0,0,0,randonly selected as training point or test point
hexanoic acid,377.15,1,CCCCCC(=O)O,pubchem,0,0,0,1,randonly selected as training point or test point
oxane,253.15,1,C1CCOCC1,pubchem,0,0,0,0,randonly selected as training point or test point
heptane,269.15,1,CCCCCCC,pubchem,0,0,0,0,randonly selected as training point or test point
N-propylpropan-1-amine,290.15,1,CCCNCCC,pubchem,0,0,0,0,randonly selected as training point or test point
hexyl acetate,310.15,1,CCCCCCOC(=O)C,pubchem,0,0,0,0,randonly selected as training point or test point
1-butoxybutane,298.15,1,CCCCOCCCC,pubchem,0,0,0,0,randonly selected as training point or test point
nonan-1-ol,347.15,1,CCCCCCCCCO,pubchem,0,0,0,0,randonly selected as training point or test point
decane-1-thiol,371.15,1,CCCCCCCCCCS,pubchem,0,0,0,0,randonly selected as training point or test point
N-hexylhexan-1-amine,368.15,1,CCCCCCNCCCCCC,pubchem,0,0,0,0,randonly selected as training point or test point
2-[2-(2-butoxyethoxy)ethoxy]ethanol,416.15,1,CCCCOCCOCCOCCO,pubchem,0,0,0,0,randonly selected as training point or test point
hexadecan-1-amine,414.15,1,CCCCCCCCCCCCCCCCN,pubchem,0,0,0,0,randonly selected as training point or test point
"2,2,4-trimethylpentane-1,3-diol",386.15,1,CC(C)C(C(C)(C)CO)O,pubchem,0,0,0,0,randonly selected as training point or test point
"2,2,4-trimethyl-1H-quinoline",374.15,1,CC1=CC(NC2=CC=CC=C12)(C)C,pubchem,0,0,0,0,randonly selected as training point or test point
dichloro-methyl-phenylsilane,301.15,1,C[Si](C1=CC=CC=C1)(Cl)Cl,pubchem,1,1,0,0,randonly selected as training point or test point
tris(butylsulfanyl)phosphane,419.15,1,CCCCSP(SCCCC)SCCCC,pubchem,0,0,0,0,randonly selected as training point or test point
4-methoxyphenol,405.15,1,COC1=CC=C(C=C1)O,pubchem,0,0,0,0,randonly selected as training point or test point
"1,4-dimethoxybenzene",361.15,1,COC1=CC=C(C=C1)OC,pubchem,0,0,0,0,randonly selected as training point or test point
aziridine,262.15,1,C1CN1,pubchem,0,0,0,0,randonly selected as training point or test point
4-ethoxyaniline,389.15,1,CCOC1=CC=C(C=C1)N,pubchem,0,0,0,0,randonly selected as training point or test point
3-aminopropan-1-ol,352.15,1,C(CN)CO,pubchem,0,0,0,0,randonly selected as training point or test point
fluoranthene,471.15,1,C1=CC=C2C(=C1)C3=CC=CC4=C3C2=CC=C4,pubchem,0,0,0,0,randonly selected as training point or test point
acenaphthylene,395.15,1,C1=CC2=C3C(=C1)C=CC3=CC=C2,pubchem,0,0,0,0,randonly selected as training point or test point
1-benzofuran,329.15,1,C1=CC=C2C(=C1)C=CO2,pubchem,0,0,0,0,randonly selected as training point or test point
7-oxabicyclo[4.1.0]heptane,354.15,1,C1CCC2C(C1)O2,pubchem,0,0,0,0,randonly selected as training point or test point
"1H-1,2,4-triazole",443.15,1,C1=NC=NN1,pubchem,0,0,0,0,randonly selected as training point or test point
cycloheptane,279.15,1,C1CCCCCC1,pubchem,0,0,0,0,randonly selected as training point or test point
bis(2-ethylhexyl) hydrogen phosphate,469.15,1,CCCCC(CC)COP(=O)(O)OCC(CC)CCCC,pubchem,0,0,0,0,randonly selected as training point or test point
N-methyl-1-phenylpropan-2-amine;hydrochloride,282.15,1,CC(CC1=CC=CC=C1)NC.Cl,pubchem,0,0,0,0,randonly selected as training point or test point
tris(2-ethylhexyl) phosphite,444.15,1,CCCCC(CC)COP(OCC(CC)CCCC)OCC(CC)CCCC,pubchem,0,0,0,0,randonly selected as training point or test point
"1,2-dichloro-4-(trifluoromethyl)benzene",338.15,1,C1=CC(=C(C=C1C(F)(F)F)Cl)Cl,pubchem,0,0,0,0,randonly selected as training point or test point
methyl trifluoromethanesulfonate,311.15,1,COS(=O)(=O)C(F)(F)F,pubchem,0,0,0,0,randonly selected as training point or test point
2-fluoroaniline,333.15,1,C1=CC=C(C(=C1)N)F,pubchem,0,0,0,0,randonly selected as training point or test point
1-fluoro-4-methylbenzene,314.15,1,CC1=CC=C(C=C1)F,pubchem,0,0,0,0,randonly selected as training point or test point
1-fluoro-3-methylbenzene,282.15,1,CC1=CC(=CC=C1)F,pubchem,0,0,0,0,randonly selected as training point or test point
ethylsulfanylethane,263.15,1,CCSCC,pubchem,0,0,0,0,randonly selected as training point or test point
"2,4-difluoroaniline",336.15,1,C1=CC(=C(C=C1F)F)N,pubchem,0,0,0,0,randonly selected as training point or test point
4-fluoroaniline,347.15,1,C1=CC(=CC=C1N)F,pubchem,0,0,0,0,randonly selected as training point or test point
2-fluoroethanol,304.15,1,C(CF)O,pubchem,0,0,0,0,randonly selected as training point or test point
1-nitro-2-(trifluoromethyl)benzene,369.15,1,C1=CC=C(C(=C1)C(F)(F)F)[N+](=O)[O-],pubchem,0,0,0,0,randonly selected as training point or test point
2-fluorobenzoyl chloride,355.15,1,C1=CC=C(C(=C1)C(=O)Cl)F,pubchem,0,0,0,0,randonly selected as training point or test point
6-methylhept-5-en-2-one,330.15,1,CC(=CCCC(=O)C)C,pubchem,0,0,0,0,randonly selected as training point or test point
cyanamide,414.15,1,C(#N)N,pubchem,0,0,0,0,randonly selected as training point or test point
1-bromo-4-fluorobenzene,333.15,1,C1=CC(=CC=C1F)Br,pubchem,0,0,0,0,randonly selected as training point or test point
fluorobenzene,258.15,1,C1=CC=C(C=C1)F,pubchem,0,0,0,0,randonly selected as training point or test point
pyridin-3-amine,463.15,1,C1=CC(=CN=C1)N,pubchem,0,0,0,0,randonly selected as training point or test point
pentyl nitrite,283.15,1,CCCCCON=O,pubchem,0,0,0,0,randonly selected as training point or test point
"3,3-dimethylbutan-2-ol",351.15,1,CC(C(C)(C)C)O,pubchem,0,0,0,0,randonly selected as training point or test point
"(1S,2R,4R)-1,7,7-trimethylbicyclo[2.2.1]heptan-2-ol",339.15,1,CC1(C2CCC1(C(C2)O)C)C,pubchem,0,0,0,0,randonly selected as training point or test point
prop-2-ynoic acid,331.15,1,C#CC(=O)O,pubchem,0,0,0,1,randonly selected as training point or test point
"2,6,6-trimethylbicyclo[3.1.1]heptane",313.15,1,CC1CCC2CC1C2(C)C,pubchem,0,0,0,0,randonly selected as training point or test point
3-methyl-2-pent-2-enylcyclopent-2-en-1-one,380.15,1,CCC=CCC1=C(CCC1=O)C,pubchem,0,0,0,0,randonly selected as training point or test point
"InChI=1S/C4H4O2/c5-4-2-1-3-6-4/h1-2H,3H2",374.15,1,C1C=CC(=O)O1,pubchem,0,0,0,0,randonly selected as training point or test point
2-methyl-5-propan-2-ylphenol,373.15,1,CC1=C(C=C(C=C1)C(C)C)O,pubchem,0,0,0,0,randonly selected as training point or test point
benzyl carbonochloridate,381.15,1,C1=CC=C(C=C1)COC(=O)Cl,pubchem,0,0,0,0,randonly selected as training point or test point
oxepan-2-one,400.15,1,C1CCC(=O)OCC1,pubchem,0,0,0,0,randonly selected as training point or test point
nonan-5-one,333.15,1,CCCCC(=O)CCCC,pubchem,0,0,0,0,randonly selected as training point or test point
2-(fluoromethyl)oxirane,277.15,1,C1C(O1)CF,pubchem,0,0,0,0,randonly selected as training point or test point
but-2-yne,253.15,1,CC#CC,pubchem,0,0,0,0,randonly selected as training point or test point
oxetane,245.15,1,C1COC1,pubchem,0,0,0,0,randonly selected as training point or test point
3-methylbutanoic acid,343.15,1,CC(C)CC(=O)O,pubchem,0,0,0,1,randonly selected as training point or test point
"2,6-dimethylhepta-2,5-dien-4-one",358.15,1,CC(=CC(=O)C=C(C)C)C,pubchem,0,0,0,0,randonly selected as training point or test point
pyridin-2-amine,365.15,1,C1=CC=NC(=C1)N,pubchem,0,0,0,0,randonly selected as training point or test point
"propane-1,3-diol",447.15,1,C(CO)CO,pubchem,0,0,0,0,randonly selected as training point or test point
"1,3-dioxane",275.15,1,C1COCOC1,pubchem,0,0,0,0,randonly selected as training point or test point
1-chloro-2-(2-chloroethylsulfanyl)ethane,378.15,1,C(CCl)SCCCl,pubchem,0,0,0,0,randonly selected as training point or test point
acetyl bromide,348.15,1,CC(=O)Br,pubchem,0,0,0,0,randonly selected as training point or test point
2-bromo-2-methylpropane,257.15,1,CC(C)(C)Br,pubchem,0,0,0,0,randonly selected as training point or test point
"(1R,2S,4S)-1,7,7-trimethylbicyclo[2.2.1]heptan-2-ol",339.15,1,CC1(C2CCC1(C(C2)O)C)C,pubchem,0,0,0,0,randonly selected as training point or test point
1-chloro-2-methylpropane,263.15,1,CC(C)CCl,pubchem,0,0,0,0,randonly selected as training point or test point
1-chloro-2-methylprop-1-ene,272.15,1,CC(=CCl)C,pubchem,0,0,0,0,randonly selected as training point or test point
2-methylprop-2-en-1-ol,306.15,1,CC(=C)CO,pubchem,0,0,0,0,randonly selected as training point or test point
butane-2-thiol,250.15,1,CCC(C)S,pubchem,0,0,0,0,randonly selected as training point or test point
"(1R,4aR,4bR,10aR)-1,4a-dimethyl-7-propan-2-yl-2,3,4,4b,5,6,10,10a-octahydrophenanthrene-1-carboxylic acid",460.15,1,CC(C)C1=CC2=CCC3C(C2CC1)(CCCC3(C)C(=O)O)C,pubchem,0,0,0,1,randonly selected as training point or test point
"1,2,3-trimethylbenzene",317.15,1,CC1=C(C(=CC=C1)C)C,pubchem,0,0,0,0,randonly selected as training point or test point
"1,2,3,5-tetramethylbenzene",336.15,1,CC1=CC(=C(C(=C1)C)C)C,pubchem,0,0,0,0,randonly selected as training point or test point
"1,2-dinitrobenzene",423.15,1,C1=CC=C(C(=C1)[N+](=O)[O-])[N+](=O)[O-],pubchem,0,0,0,0,randonly selected as training point or test point
2-methylbenzonitrile,357.15,1,CC1=CC=CC=C1C#N,pubchem,0,0,0,0,randonly selected as training point or test point
2-methylbenzaldehyde,340.15,1,CC1=CC=CC=C1C=O,pubchem,0,0,0,0,randonly selected as training point or test point
"3,4-dihydro-2H-naphthalen-1-one",402.15,1,C1CC2=CC=CC=C2C(=O)C1,pubchem,0,0,0,0,randonly selected as training point or test point
2-chloro-1-phenylethanone,391.15,1,C1=CC=C(C=C1)C(=O)CCl,pubchem,0,0,0,0,randonly selected as training point or test point
2-hydroxy-2-phenylacetonitrile,355.15,1,C1=CC=C(C=C1)C(C#N)O,pubchem,0,0,0,0,randonly selected as training point or test point
"3,5-dimethyl-1,3,5-thiadiazinane-2-thione",366.15,1,CN1CN(C(=S)SC1)C,pubchem,0,0,0,0,randonly selected as training point or test point
2-methylfuran,243.15,1,CC1=CC=CO1,pubchem,0,0,0,0,randonly selected as training point or test point
(2S)-N-methyl-1-phenylpropan-2-amine,282.15,1,CC(CC1=CC=CC=C1)NC,pubchem,0,0,0,0,randonly selected as training point or test point
"2,3-di(octanoyloxy)propyl octanoate",450.15,1,CCCCCCCC(=O)OCC(COC(=O)CCCCCCC)OC(=O)CCCCCCC,pubchem,0,0,0,0,randonly selected as training point or test point
pentyl butanoate,330.15,1,CCCCCOC(=O)CCC,pubchem,0,0,0,0,randonly selected as training point or test point
2-bromoethanol,314.15,1,C(CBr)O,pubchem,0,0,0,0,randonly selected as training point or test point
1-chloropropane,255.15,1,CCCCl,pubchem,0,0,0,0,randonly selected as training point or test point
"1,2-dichloroethene",277.15,1,C(=CCl)Cl,pubchem,0,0,0,0,randonly selected as training point or test point
methoxyethane,236.15,1,CCOC,pubchem,0,0,0,0,randonly selected as training point or test point
"2,2,4-trimethylpentane",261.15,1,CC(C)CC(C)(C)C,pubchem,0,0,0,0,randonly selected as training point or test point
tert-butyl acetate,295.15,1,CC(=O)OC(C)(C)C,pubchem,0,0,0,0,randonly selected as training point or test point
"2,2,4,4,6,6,8,8,10,10,12,12-dodecamethyl-1,3,5,7,9,11-hexaoxa-2,4,6,8,10,12-hexasilacyclododecane",364.15,1,C[Si]1(O[Si](O[Si](O[Si](O[Si](O[Si](O1)(C)C)(C)C)(C)C)(C)C)(C)C)C,pubchem,1,1,0,0,randonly selected as training point or test point
"2,2,4,4,6,6,8,8,10,10-decamethyl-1,3,5,7,9,2,4,6,8,10-pentaoxapentasilecane",346.15,1,C[Si]1(O[Si](O[Si](O[Si](O[Si](O1)(C)C)(C)C)(C)C)(C)C)C,pubchem,1,1,0,0,randonly selected as training point or test point
ethyl carbonochloridate,289.15,1,CCOC(=O)Cl,pubchem,0,0,0,0,randonly selected as training point or test point
"1,3-dichlorobenzene",336.15,1,C1=CC(=CC(=C1)Cl)Cl,pubchem,0,0,0,0,randonly selected as training point or test point
chlorocyclohexane,305.15,1,C1CCC(CC1)Cl,pubchem,0,0,0,0,randonly selected as training point or test point
2-methylpropyl nitrite,250.15,1,CC(C)CON=O,pubchem,0,0,0,0,randonly selected as training point or test point
2-hydroxyethyl acetate,375.15,1,CC(=O)OCCO,pubchem,0,0,0,0,randonly selected as training point or test point
3-chloropropanenitrile,349.15,1,C(CCl)C#N,pubchem,0,0,0,0,randonly selected as training point or test point
heptan-2-ol,344.15,1,CCCCCC(C)O,pubchem,0,0,0,0,randonly selected as training point or test point
1-chloropentane,274.15,1,CCCCCCl,pubchem,0,0,0,0,randonly selected as training point or test point
1-chlorohexane,308.15,1,CCCCCCCl,pubchem,0,0,0,0,randonly selected as training point or test point
hex-3-en-1-ol,403.15,1,CCC=CCCO,pubchem,0,0,0,0,randonly selected as training point or test point
hexadecane,408.15,1,CCCCCCCCCCCCCCCC,pubchem,0,0,0,0,randonly selected as training point or test point
"2,2,2-trichloroacetonitrile",347.15,1,C(#N)C(Cl)(Cl)Cl,pubchem,0,0,0,0,randonly selected as training point or test point
1-[bis(aziridin-1-yl)phosphoryl]aziridine,436.15,1,C1CN1P(=O)(N2CC2)N3CC3,pubchem,0,0,0,0,randonly selected as training point or test point
methyl 2-hydroxypropanoate,324.15,1,CC(C(=O)OC)O,pubchem,0,0,0,0,randonly selected as training point or test point
"1,3-dioxo-2-benzofuran-5-carboxylic acid",500.15,1,C1=CC2=C(C=C1C(=O)O)C(=O)OC2=O,pubchem,0,0,0,1,randonly selected as training point or test point
"2,4-dichloroaniline",388.15,1,C1=CC(=C(C=C1Cl)Cl)N,pubchem,0,0,0,0,randonly selected as training point or test point
methyl propanoate,271.15,1,CCC(=O)OC,pubchem,0,0,0,0,randonly selected as training point or test point
3-methylidene-6-propan-2-ylcyclohexene,393.15,1,CC(C)C1CCC(=C)C=C1,pubchem,0,0,0,0,randonly selected as training point or test point
oxiran-2-ylmethanol,345.15,1,C1C(O1)CO,pubchem,0,0,0,0,randonly selected as training point or test point
methylimino(sulfanylidene)methane,308.15,1,CN=C=S,pubchem,0,0,0,0,randonly selected as training point or test point
"2,2,4,4,6,6,8,8-octamethyl-1,3,5,7,2,4,6,8-tetraoxatetrasilocane",328.15,1,C[Si]1(O[Si](O[Si](O[Si](O1)(C)C)(C)C)(C)C)C,pubchem,1,1,0,0,randonly selected as training point or test point
3-methylbut-2-en-1-ol,323.15,1,CC(=CCO)C,pubchem,0,0,0,0,randonly selected as training point or test point
zinc;octadecanoate,550.15,1,CCCCCCCCCCCCCCCCCC(=O)[O-].CCCCCCCCCCCCCCCCCC(=O)[O-].[Zn+2],pubchem,0,1,0,0,randonly selected as training point or test point
3-prop-2-enoxyprop-1-ene,266.15,1,C=CCOCC=C,pubchem,0,0,0,0,randonly selected as training point or test point
ethenol,352.15,1,C=CO,pubchem,0,0,0,0,randonly selected as training point or test point
4-methyl-1-propan-2-ylcyclohex-3-en-1-ol,352.15,1,CC1=CCC(CC1)(C(C)C)O,pubchem,0,0,0,0,randonly selected as training point or test point
tris(3-methylphenyl) phosphate,483.15,1,CC1=CC(=CC=C1)OP(=O)(OC2=CC=CC(=C2)C)OC3=CC=CC(=C3)C,pubchem,0,0,0,0,randonly selected as training point or test point
3-chloro-2-methylprop-1-ene,260.15,1,CC(=C)CCl,pubchem,0,0,0,0,randonly selected as training point or test point
3-methylbutan-2-one,279.15,1,CC(C)C(=O)C,pubchem,0,0,0,0,randonly selected as training point or test point
"2,6-dimethylphenol",347.15,1,CC1=C(C(=CC=C1)C)O,pubchem,0,0,0,0,randonly selected as training point or test point
"1,2-di(propan-2-yl)benzene",350.15,1,CC(C)C1=CC=CC=C1C(C)C,pubchem,0,0,0,0,randonly selected as training point or test point
2-ethylaniline,358.15,1,CCC1=CC=CC=C1N,pubchem,0,0,0,0,randonly selected as training point or test point
2-methylcyclohexan-1-ol,332.15,1,CC1CCCCC1O,pubchem,0,0,0,0,randonly selected as training point or test point
2-methylcyclohexan-1-one,321.15,1,CC1CCCCC1=O,pubchem,0,0,0,0,randonly selected as training point or test point
2-hydroxy-4-methylsulfanylbutanoic acid,394.15,1,CSCCC(C(=O)O)O,pubchem,0,0,0,1,randonly selected as training point or test point
pentan-3-ol,303.15,1,CCC(CC)O,pubchem,0,0,0,0,randonly selected as training point or test point
"butane-1,2-diol",313.15,1,CCC(CO)O,pubchem,0,0,0,0,randonly selected as training point or test point
"2,4-diisocyanato-1-methylbenzene",405.15,1,CC1=C(C=C(C=C1)N=C=O)N=C=O,pubchem,0,0,0,0,randonly selected as training point or test point
1-bromoethylbenzene,369.15,1,CC(C1=CC=CC=C1)Br,pubchem,0,0,0,0,randonly selected as training point or test point
1-methyl-4-propan-2-ylidenecyclohexene,337.15,1,CC1=CCC(=C(C)C)CC1,pubchem,0,0,0,0,randonly selected as training point or test point
N-phenylaniline,426.15,1,C1=CC=C(C=C1)NC2=CC=CC=C2,pubchem,0,0,0,0,randonly selected as training point or test point
4-methylcyclohexan-1-ol,343.15,1,CC1CCC(CC1)O,pubchem,0,0,0,0,randonly selected as training point or test point
butyl propanoate,311.15,1,CCCCOC(=O)CC,pubchem,0,0,0,0,randonly selected as training point or test point
1-methylcyclohexan-1-ol,340.15,1,CC1(CCCCC1)O,pubchem,0,0,0,0,randonly selected as training point or test point
3-methylbutanal,286.15,1,CC(C)CC=O,pubchem,0,0,0,0,randonly selected as training point or test point
1-bromo-3-methylbenzene,333.15,1,CC1=CC(=CC=C1)Br,pubchem,0,0,0,0,randonly selected as training point or test point
3-bromophenol,383.15,1,C1=CC(=CC(=C1)Br)O,pubchem,0,0,0,0,randonly selected as training point or test point
3-methylcyclohexan-1-ol,335.15,1,CC1CCCC(C1)O,pubchem,0,0,0,0,randonly selected as training point or test point
iodobenzene,350.15,1,C1=CC=C(C=C1)I,pubchem,0,0,0,0,randonly selected as training point or test point
2-methylhexane,255.15,1,CCCCC(C)C,pubchem,0,0,0,0,randonly selected as training point or test point
hexan-2-one,296.15,1,CCCCC(=O)C,pubchem,0,0,0,0,randonly selected as training point or test point