compound,flashpoint,pure substance,smiles,source,is_silicon,is_metallic,is_tin,is_acid,data type
"1,3-bis(ethenyl)benzene",347.75,1,C=Cc1cccc(C=C)c1,le15,0,0,0,0,randonly selected as training point or test point
"Butanoic acid, propyl ester",312.05,1,CCCOC(=O)CCC,le15,0,0,0,1,randonly selected as training point or test point
"Hexanoic acid, methyl ester",315.15,1,CCCCCC(=O)OC,le15,0,0,0,1,randonly selected as training point or test point
"2-Pentanone, 4-methoxy-4-methyl-",314.45,1,COC(C)(C)CC(C)=O,le15,0,0,0,0,randonly selected as training point or test point
"Butyric acid, 3-methyl-, ethyl ester (6CI,7CI,8CI)",299.15,1,CCOC(=O)CC(C)C,le15,0,0,0,1,randonly selected as training point or test point
"1-Butanol, 3-methyl-, acetate",298.15,1,CC(=O)OCCC(C)C,le15,0,0,0,0,randonly selected as training point or test point
"Valeric acid, ethyl ester (8CI)",312.05,1,CCCCC(=O)OCC,le15,0,0,0,1,randonly selected as training point or test point
"Propanoic acid, 2-methylpropyl ester",299.15,1,CCC(=O)OCC(C)C,le15,0,0,0,1,randonly selected as training point or test point
"Propanoic acid, butyl ester",311.15,1,CCCCOC(=O)CC,le15,0,0,0,1,randonly selected as training point or test point
butan-2-yl propanoate,306.55,1,CCC(=O)OC(C)CC,le15,0,0,0,0,randonly selected as training point or test point
2-methylbutyl acetate,308.15,1,CCC(C)COC(C)=O,le15,0,0,0,0,randonly selected as training point or test point
"Formic acid, hexyl ester",320.95,1,CCCCCCOC=O,le15,0,0,0,1,randonly selected as training point or test point
propan-2-yl butanoate,303.15,1,CCCC(=O)OC(C)C,le15,0,0,0,0,randonly selected as training point or test point
propyl 2-methylpropanoate,306.55,1,CCCOC(=O)C(C)C,le15,0,0,0,0,randonly selected as training point or test point
"ethyl 2,2-dimethylpropanoate",289.15,1,CCOC(=O)C(C)(C)C,le15,0,0,0,0,randonly selected as training point or test point
2-methylhexanoic acid,330.15,1,CCCCC(C)C(=O)O,le15,0,0,0,1,randonly selected as training point or test point
"Thiocyanic acid, methylene ester",399.45,1,N#CSCSC#N,le15,0,0,0,1,randonly selected as training point or test point
"Butyric acid, 2-methyl-, ethyl ester (8CI)",306.55,1,CCOC(=O)C(C)CC,le15,0,0,0,1,randonly selected as training point or test point
"Butanoic acid, 2-ethyl-2-methyl-",365.15,1,CCC(C)(CC)C(=O)O,le15,0,0,0,1,randonly selected as training point or test point
"Propanoic acid, 1,1-dimethylethyl ester",298.55,1,CCC(=O)OC(C)(C)C,le15,0,0,0,1,randonly selected as training point or test point
"2,2-dimethylpentanoic acid",365.15,1,CCCC(C)(C)C(=O)O,le15,0,0,0,1,randonly selected as training point or test point
"Propane, 1-butoxy-2,3-epoxy-",328.75,1,CCCCOCC1CO1,le15,0,0,0,0,randonly selected as training point or test point
"Oxirane, ((1,1-dimethylethoxy)methyl)-",316.45,1,CC(C)(C)OCC1CO1,le15,0,0,0,0,randonly selected as training point or test point
2pentylacetate,305.0,1,CCCCCCC(=O)[O-],le15,0,0,0,0,randonly selected as training point or test point
tertButylPropionate,293.0,1,CCC(=O)OC(C)(C)C,le15,0,0,0,0,randonly selected as training point or test point
N-(2-Hydroxyethyl)piperazine,375.05,1,OCCN1CCNCC1,le15,0,0,0,0,randonly selected as training point or test point
6-aminohexanamide,414.35,1,NCCCCCC(N)=O,le15,0,0,0,0,randonly selected as training point or test point
"tert-Butylamine, N-ethyl-N-nitroso-",346.75,1,CCN(N=O)C(C)(C)C,le15,0,0,0,0,randonly selected as training point or test point
"Morpholine, 4-(2-aminoethyl)-",448.15,1,NCCN1CCOCC1,le15,0,0,0,0,randonly selected as training point or test point
"1-Butanamine, N-ethyl-N-nitroso- (9CI)",355.75,1,CCCCN(CC)N=O,le15,0,0,0,0,randonly selected as training point or test point
"1-Hexanol, 2-ethyl-",350.35,1,CCCCC(CC)CO,le15,0,0,0,0,randonly selected as training point or test point
"1-Pentanol, 2,2,4-trimethyl-",329.75,1,CC(C)CC(C)(C)CO,le15,0,0,0,0,randonly selected as training point or test point
"Butane, 1,1'-oxybis-",298.15,1,CCCCOCCCC,le15,0,0,0,0,randonly selected as training point or test point
octan-4-ol,344.25,1,CCCCC(O)CCC,le15,0,0,0,0,randonly selected as training point or test point
3-ethylhexan-3-ol,333.75,1,CCCC(O)(CC)CC,le15,0,0,0,0,randonly selected as training point or test point
4-methylheptan-4-ol,333.75,1,CCCC(C)(O)CCC,le15,0,0,0,0,randonly selected as training point or test point
"1-Heptanol, 6-methyl-",344.25,1,CC(C)CCCCCO,le15,0,0,0,0,randonly selected as training point or test point
"1-Hexanol, 2,2-dimethyl-",333.75,1,CCCCC(C)(C)CO,le15,0,0,0,0,randonly selected as training point or test point
"2,2-dimethylhexan-3-ol",329.75,1,CCCC(O)C(C)(C)C,le15,0,0,0,0,randonly selected as training point or test point
6-methylheptan-2-ol,340.35,1,CC(C)CCCC(C)O,le15,0,0,0,0,randonly selected as training point or test point
"2,2,4-trimethylpentan-3-ol",323.15,1,CC(C)C(O)C(C)(C)C,le15,0,0,0,0,randonly selected as training point or test point
"3-Heptanol, 3-methyl- (8CI)(9CI)",333.75,1,CCCCC(C)(O)CC,le15,0,0,0,0,randonly selected as training point or test point
1-ethoxyhexane,304.35,1,CCCCCCOCC,le15,0,0,0,0,randonly selected as training point or test point
1-(2-methylpropoxy)butane,295.95,1,CCCCOCC(C)C,le15,0,0,0,0,randonly selected as training point or test point
"2,3-dimethylhexan-2-ol",329.75,1,CCCC(C)C(C)(C)O,le15,0,0,0,0,randonly selected as training point or test point
"3,4-dimethylhexan-2-ol",332.35,1,CCC(C)C(C)C(C)O,le15,0,0,0,0,randonly selected as training point or test point
2-Methylheptan-4-ol,337.35,1,CCCC(O)CC(C)C,le15,0,0,0,0,randonly selected as training point or test point
"2-Heptanol, 3-methyl- (8CI)(9CI)",337.35,1,CCCCC(C)C(C)O,le15,0,0,0,0,randonly selected as training point or test point
"1-Pentanol, 2-propyl-",344.85,1,CCCC(CO)CCC,le15,0,0,0,0,randonly selected as training point or test point
3-ethyl-2-methylpentan-3-ol,329.75,1,CCC(O)(CC)C(C)C,le15,0,0,0,0,randonly selected as training point or test point
"2,3,4-trimethylpentan-2-ol",323.15,1,CC(C)C(C)C(C)(C)O,le15,0,0,0,0,randonly selected as training point or test point
"2,5-dimethylhexan-2-ol",329.75,1,CC(C)CCC(C)(C)O,le15,0,0,0,0,randonly selected as training point or test point
"3-Heptanol, 5-methyl-",337.35,1,CCC(C)CC(O)CC,le15,0,0,0,0,randonly selected as training point or test point
2ethylhexanol,346.0,1,CCCCC(CC)CO,le15,0,0,0,0,randonly selected as training point or test point
3octanol,338.0,1,CCCCCC(O)CC,le15,0,0,0,0,randonly selected as training point or test point
"1,3-Propanediamine, N,N,N',N'-tetramethyl-",304.85,1,CN(C)CCCN(C)C,le15,0,0,0,0,randonly selected as training point or test point
"1,3-Propanediamine, N,N-diethyl-",326.15,1,CCN(CC)CCCN,le15,0,0,0,0,randonly selected as training point or test point
"heptane-1,7-diamine",360.95,1,NCCCCCCCN,le15,0,0,0,0,randonly selected as training point or test point
Butyltrimethylsilane,281.65,1,CCCC[Si](C)(C)C,le15,1,1,0,0,randonly selected as training point or test point
"2-chloro-2,2-difluoroacetic acid",299.05,1,O=C(O)C(F)(F)Cl,le15,0,0,0,1,randonly selected as training point or test point
furan-2-carbonyl chloride,330.25,1,O=C(Cl)c1ccco1,le15,0,0,0,0,randonly selected as training point or test point
1-chloro-2-fluorobenzene,310.15,1,Fc1ccccc1Cl,le15,0,0,0,0,randonly selected as training point or test point
1-chloro-4-fluorobenzene,302.15,1,Fc1ccc(Cl)cc1,le15,0,0,0,0,randonly selected as training point or test point
1-chloro-2-fluorobenzene,293.15,1,Fc1ccccc1Cl,le15,0,0,0,0,randonly selected as training point or test point
chlorosulfonyloxymethane,306.95,1,COS(=O)(=O)Cl,le15,0,0,0,0,randonly selected as training point or test point
"5-Chloro-1,3-dimethyl-1H-pyrazole",335.85,1,Cc1cc(Cl)n(C)n1,le15,0,0,0,0,randonly selected as training point or test point
dichloro(ethyl)phosphane,305.95,1,CCP(Cl)Cl,le15,0,0,0,0,randonly selected as training point or test point
"1,2-dichloro-2-fluoropropane",276.75,1,CC(F)(Cl)CCl,le15,0,0,0,0,randonly selected as training point or test point
"Glyoxylonitrile, phenyl- (8CI)",357.15,1,N#CC(=O)c1ccccc1,le15,0,0,0,0,randonly selected as training point or test point
m-Formylbenzonitrile,354.45,1,N#Cc1cccc(C=O)c1,le15,0,0,0,0,randonly selected as training point or test point
"Pentanoic acid, 5-amino-4-oxo-",407.45,1,NCC(=O)CCC(=O)O,le15,0,0,0,1,randonly selected as training point or test point
"Pyrido(2,3-d)pyridazine",452.45,1,c1cnc2cnncc2c1,le15,0,0,0,0,randonly selected as training point or test point
"Pyrido(3,4-d)pyridazine",467.05,1,c1cc2cnncc2cn1,le15,0,0,0,0,randonly selected as training point or test point
"Urea, 1,1,3-trimethyl-3-nitroso-",316.85,1,CN(C)C(=O)N(C)N=O,le15,0,0,0,0,randonly selected as training point or test point
2-methyl-1H-indole,385.65,1,Cc1cc2ccccc2[nH]1,le15,0,0,0,0,randonly selected as training point or test point
5-methyl-1H-indole,387.85,1,Cc1ccc2[nH]ccc2c1,le15,0,0,0,0,randonly selected as training point or test point
7-methyl-1H-indole,383.65,1,Cc1cccc2cc[nH]c12,le15,0,0,0,0,randonly selected as training point or test point
2-(3-methylphenyl)acetonitrile,381.55,1,Cc1cccc(CC#N)c1,le15,0,0,0,0,randonly selected as training point or test point
2-(4-methylphenyl)acetonitrile,379.25,1,Cc1ccc(CC#N)cc1,le15,0,0,0,0,randonly selected as training point or test point
"Benzonitrile, 2,3-dimethyl-",373.15,1,Cc1cccc(C#N)c1C,le15,0,0,0,0,randonly selected as training point or test point
2-(2-methylphenyl)acetonitrile,384.45,1,Cc1ccccc1CC#N,le15,0,0,0,0,randonly selected as training point or test point
"1H-Indole, 3-methyl-",405.15,1,Cc1c[nH]c2ccccc12,le15,0,0,0,0,randonly selected as training point or test point
"Benzeneacetonitrile, alpha-methyl-",367.05,1,CC(C#N)c1ccccc1,le15,0,0,0,0,randonly selected as training point or test point
4-methyl-1H-indole,387.25,1,Cc1cccc2[nH]ccc12,le15,0,0,0,0,randonly selected as training point or test point
"Carbamic acid, 1-methylbutyl ester",367.35,1,CCCC(C)OC(N)=O,le15,0,0,0,1,randonly selected as training point or test point
2-Morpholinoethanol,372.55,1,OCCN1CCOCC1,le15,0,0,0,0,randonly selected as training point or test point
"Hexane, 1-nitro-",345.15,1,CCCCCC[N+](=O)[O-],le15,0,0,0,0,randonly selected as training point or test point
2-dimethylaminoethyl acetate,529.95,1,CC(=O)OCCN(C)C,le15,0,0,0,0,randonly selected as training point or test point
"Hexanoic acid, 6-amino-",381.55,1,NCCCCCC(=O)O,le15,0,0,0,1,randonly selected as training point or test point
"Hydrazinecarbothioamide, 2-(1-methylethylidene)-",356.25,1,CC(C)=NNC(N)=S,le15,0,0,0,0,randonly selected as training point or test point
3butoxypropylamine,336.0,1,CCCCOCCCN,le15,0,0,0,0,randonly selected as training point or test point
"1,3-Propanediamine, N-(3-aminopropyl)-",391.15,1,NCCCNCCCN,le15,0,0,0,0,randonly selected as training point or test point
"1,1,2-Trichloroethylene",285.25,1,ClC=C(Cl)Cl,le15,0,0,0,0,randonly selected as training point or test point
"2,2,3,3-tetrafluoropropan-1-ol",316.15,1,OCC(F)(F)C(F)F,le15,0,0,0,0,randonly selected as training point or test point
"1,2,4-trifluorobenzene",277.15,1,Fc1ccc(F)c(F)c1,le15,0,0,0,0,randonly selected as training point or test point
"1,3,5-trifluorobenzene",333.65,1,Fc1cc(F)cc(F)c1,le15,0,0,0,0,randonly selected as training point or test point
"Propanedioic acid, dimethyl ester",363.15,1,COC(=O)CC(=O)OC,le15,0,0,0,1,randonly selected as training point or test point
Pentanedioic acid,424.35,1,O=C(O)CCCC(=O)O,le15,0,0,0,1,randonly selected as training point or test point
"2,3-dihydroinden-1-one",384.85,1,O=C1CCc2ccccc21,le15,0,0,0,0,randonly selected as training point or test point
2-methyl-1-benzofuran,340.15,1,Cc1cc2ccccc2o1,le15,0,0,0,0,randonly selected as training point or test point
"2-Propenal, 3-phenyl-, (E)- (9CI)",344.15,1,O=C/C=C/c1ccccc1,le15,0,0,0,0,randonly selected as training point or test point
7-methyl-1-benzofuran,344.55,1,Cc1cccc2ccoc12,le15,0,0,0,0,randonly selected as training point or test point
5-methyl-1-benzofuran,362.55,1,Cc1ccc2occc2c1,le15,0,0,0,0,randonly selected as training point or test point
3-methyl-1-benzofuran,346.35,1,Cc1coc2ccccc12,le15,0,0,0,0,randonly selected as training point or test point
Cinnamaldehyde,344.0,1,O=CC=Cc1ccccc1,le15,0,0,0,0,randonly selected as training point or test point
ethyl 2-hydroxy-2-methylpropanoate,317.15,1,CCOC(=O)C(C)(C)O,le15,0,0,0,0,randonly selected as training point or test point
"Ethaneperoxoic acid, 1,1-dimethylethyl ester",312.95,1,CC(=O)OOC(C)(C)C,le15,0,0,0,1,randonly selected as training point or test point
"Acetic acid, 2-methoxy-1-methylethyl ester",321.05,1,COCC(C)OC(C)=O,le15,0,0,0,1,randonly selected as training point or test point
"Ethanol, 2-ethoxy-, acetate",323.75,1,CCOCCOC(C)=O,le15,0,0,0,0,randonly selected as training point or test point
"1,3,5-Trioxane, 2,4,6-trimethyl-",312.35,1,CC1OC(C)OC(C)O1,le15,0,0,0,0,randonly selected as training point or test point
"2,5-dimethoxyoxolane",308.15,1,COC1CCC(OC)O1,le15,0,0,0,0,randonly selected as training point or test point
ethyl 2-ethoxyacetate,321.45,1,CCOCC(=O)OCC,le15,0,0,0,0,randonly selected as training point or test point
"Ethanol, 2-(2-(ethenyloxy)ethoxy)- (9CI)",351.55,1,C=COCCOCCO,le15,0,0,0,0,randonly selected as training point or test point
6-hydroxyhexanoic acid,406.05,1,O=C(O)CCCCCO,le15,0,0,0,1,randonly selected as training point or test point
"Acetic acid, butoxy-",370.65,1,CCCCOCC(=O)O,le15,0,0,0,1,randonly selected as training point or test point
4-Aminophenylacetonitrile,409.45,1,N#CCc1ccc(N)cc1,le15,0,0,0,0,randonly selected as training point or test point
"Butanoic acid, 3-hydroxy-, ethyl ester",337.15,1,CCOC(=O)CC(C)O,le15,0,0,0,1,randonly selected as training point or test point
"1,3-Dioxolane-4-methanol, 2,2-dimethyl-",353.15,1,CC1(C)OCC(CO)O1,le15,0,0,0,0,randonly selected as training point or test point
[5-(hydroxymethyl)oxolan-2-yl]methanol,385.15,1,OCC1CCC(CO)O1,le15,0,0,0,0,randonly selected as training point or test point
propan-2-yl 2-hydroxypropanoate,330.35,1,CC(C)OC(=O)C(C)O,le15,0,0,0,0,randonly selected as training point or test point
"4,7-Methano-1H-indene, 3a,4,7,7a-tetrahydro-",319.949,1,C1=CC2C3C=CC(C3)C2C1,le15,0,0,0,0,randonly selected as training point or test point
"Naphthalene, 1,2,3,4-tetrahydro-",350.15,1,c1ccc2c(c1)CCCC2,le15,0,0,0,0,randonly selected as training point or test point
but-3-enylbenzene,333.15,1,C=CCCc1ccccc1,le15,0,0,0,0,randonly selected as training point or test point
[(E)-but-1-enyl]benzene,336.75,1,CC/C=C/c1ccccc1,le15,0,0,0,0,randonly selected as training point or test point
1-methyl-3-prop-1-en-2-ylbenzene,331.35,1,C=C(C)c1cccc(C)c1,le15,0,0,0,0,randonly selected as training point or test point
[(E)-but-2-enyl]benzene,329.35,1,C/C=C/Cc1ccccc1,le15,0,0,0,0,randonly selected as training point or test point
1-ethenyl-4-ethylbenzene,335.25,1,C=Cc1ccc(CC)cc1,le15,0,0,0,0,randonly selected as training point or test point
1-methyl-2-prop-1-en-2-ylbenzene,328.75,1,C=C(C)c1ccccc1C,le15,0,0,0,0,randonly selected as training point or test point
1-methyl-4-prop-1-en-2-ylbenzene,332.55,1,C=C(C)c1ccc(C)cc1,le15,0,0,0,0,randonly selected as training point or test point
1-methyl-2-prop-2-enylbenzene,330.45,1,C=CCc1ccccc1C,le15,0,0,0,0,randonly selected as training point or test point
but-1-en-2-ylbenzene,330.25,1,C=C(CC)c1ccccc1,le15,0,0,0,0,randonly selected as training point or test point
"1,3-Propanediol, 2,2-diethyl-",374.25,1,CCC(CC)(CO)CO,le15,0,0,0,0,randonly selected as training point or test point
1-(propoxymethoxy)propane,298.55,1,CCCOCOCCC,le15,0,0,0,0,randonly selected as training point or test point
"heptane-1,7-diol",394.05,1,OCCCCCCCO,le15,0,0,0,0,randonly selected as training point or test point
"1,1-diethoxypropane",285.95,1,CCOC(CC)OCC,le15,0,0,0,0,randonly selected as training point or test point
"2-Propanol, 1-butoxy-",327.65,1,CCCCOCC(C)O,le15,0,0,0,0,randonly selected as training point or test point
"2,2-diethoxypropane",275.15,1,CCOC(C)(C)OCC,le15,0,0,0,0,randonly selected as training point or test point
1-fluorooctane,337.25,1,CCCCCCCCF,le15,0,0,0,0,randonly selected as training point or test point
"Urea, 1,3-diethyl-2-thio-",329.35,1,CCNC(=S)NCC,le15,0,0,0,0,randonly selected as training point or test point
"Urea, 1-butyl-2-thio-",349.25,1,CCCCNC(N)=S,le15,0,0,0,0,randonly selected as training point or test point
"Acetic acid, (trimethylsilyl)-",334.65,1,C[Si](C)(C)CC(=O)O,le15,1,1,0,1,randonly selected as training point or test point
"Urea, 1,1,3,3-tetramethyl-2-thio-",463.15,1,CN(C)C(=S)N(C)C,le15,0,0,0,0,randonly selected as training point or test point
triethyl(hydroxy)silane,330.372,1,CC[Si](O)(CC)CC,le15,1,1,0,0,randonly selected as training point or test point
3-trimethylsilylpropan-1-ol,325.95,1,C[Si](C)(C)CCCO,le15,1,1,0,0,randonly selected as training point or test point
"3-chlorofuran-2,5-dione",368.65,1,O=C1C=C(Cl)C(=O)O1,le15,0,0,0,0,randonly selected as training point or test point
"2,4,6-Trifluoropyridine",300.65,1,Fc1cc(F)nc(F)c1,le15,0,0,0,0,randonly selected as training point or test point
"2-methyl-1,3-benzoxazole",348.15,1,Cc1nc2ccccc2o1,le15,0,0,0,0,randonly selected as training point or test point
"2,3-dihydroisoindol-1-one",493.35,1,O=C1NCc2ccccc21,le15,0,0,0,0,randonly selected as training point or test point
"Isocyanic acid, p-tolyl ester (7CI,8CI)",337.05,1,Cc1ccc(N=C=O)cc1,le15,0,0,0,1,randonly selected as training point or test point
p-Cyanobenzyl alcohol,406.75,1,N#Cc1ccc(CO)cc1,le15,0,0,0,0,randonly selected as training point or test point
m-Anisonitrile (8CI),378.15,1,COc1cccc(C#N)c1,le15,0,0,0,0,randonly selected as training point or test point
"Benzeneacetonitrile, 4-hydroxy- (9CI)",410.35,1,N#CCc1ccc(O)cc1,le15,0,0,0,0,randonly selected as training point or test point
"Isocyanic acid, o-tolyl ester (7CI,8CI)",365.15,1,Cc1ccccc1N=C=O,le15,0,0,0,1,randonly selected as training point or test point
p-Anisonitrile (8CI),529.65,1,COc1ccc(C#N)cc1,le15,0,0,0,0,randonly selected as training point or test point
1H-Indol-5-ol (9CI),434.55,1,Oc1ccc2[nH]ccc2c1,le15,0,0,0,0,randonly selected as training point or test point
2-methoxybenzonitrile,376.55,1,COc1ccccc1C#N,le15,0,0,0,0,randonly selected as training point or test point
"1H-Benzotriazole, 5-methyl-",410.55,1,Cc1ccc2[nH]nnc2c1,le15,0,0,0,0,randonly selected as training point or test point
pentyl nitrate,329.95,1,CCCCCO[N+](=O)[O-],le15,0,0,0,0,randonly selected as training point or test point
"Propanamide, 2-hydroxy-N-(2-hydroxyethyl)-",456.95,1,CC(O)C(=O)NCCO,le15,0,0,0,0,randonly selected as training point or test point
1-methylbenzotriazole,390.55,1,Cn1nnc2ccccc21,le15,0,0,0,0,randonly selected as training point or test point
1H-Benzimidazol-2-amine,477.75,1,Nc1nc2ccccc2[nH]1,le15,0,0,0,0,randonly selected as training point or test point
3-Nitropentan-2-ol,363.75,1,CCC(C(C)O)[N+](=O)[O-],le15,0,0,0,0,randonly selected as training point or test point
"Acetamide, 2-fluoro-N-isobutyl-",367.65,1,CC(C)CNC(=O)CF,le15,0,0,0,0,randonly selected as training point or test point
4-Thiazolidinecarboxylic acid,438.85,1,O=C(O)C1CSCN1,le15,0,0,0,1,randonly selected as training point or test point
"4-Thiazolidinone, 2-thioxo-",358.85,1,O=C1CSC(=S)N1,le15,0,0,0,0,randonly selected as training point or test point
"Benzenamine, N-2-propenyl-",362.55,1,C=CCNc1ccccc1,le15,0,0,0,0,randonly selected as training point or test point
"1,2,3,4-tetrahydroquinoline",373.75,1,c1ccc2c(c1)CCCN2,le15,0,0,0,0,randonly selected as training point or test point
"Pyridine, 2-ethenyl-5-ethyl- (9CI)",349.35,1,C=Cc1ccc(CC)cn1,le15,0,0,0,0,randonly selected as training point or test point
"5,6,7,8-tetrahydroquinoline",359.261,1,c1cnc2c(c1)CCCC2,le15,0,0,0,0,randonly selected as training point or test point
"2,3-dihydro-1H-inden-5-amine",383.15,1,Nc1ccc2c(c1)CCC2,le15,0,0,0,0,randonly selected as training point or test point
"Isoquinoline, 1,2,3,4-tetrahydro-",372.05,1,c1ccc2c(c1)CCNC2,le15,0,0,0,0,randonly selected as training point or test point
"5,6,7,8-tetrahydroisoquinoline",373.15,1,c1cc2c(cn1)CCCC2,le15,0,0,0,0,randonly selected as training point or test point