compound,flashpoint,pure substance,smiles,source,is_silicon,is_metallic,is_tin,is_acid,data type
4-methyldecane,322.55,1,CCCCCCC(C)CCC,le15,0,0,0,0,randonly selected as training point or test point
3-methyldecane,323.55,1,CCCCCCCC(C)CC,le15,0,0,0,0,randonly selected as training point or test point
chloro(diethoxy)phosphane,274.25,1,CCOP(Cl)OCC,le15,0,0,0,0,randonly selected as training point or test point
"Benzoic acid, 2-chloro-",393.65,1,O=C(O)c1ccccc1Cl,le15,0,0,0,1,randonly selected as training point or test point
"Benzoic acid, 3-chloro-",397.05,1,O=C(O)c1cccc(Cl)c1,le15,0,0,0,1,randonly selected as training point or test point
"Benzaldehyde, 5-chloro-2-hydroxy-",365.35,1,O=Cc1cc(Cl)ccc1O,le15,0,0,0,0,randonly selected as training point or test point
"Formic acid, chloro-, phenyl ester (8CI)",352.15,1,O=C(Cl)Oc1ccccc1,le15,0,0,0,1,randonly selected as training point or test point
"Benzoic acid, 4-chloro-",511.15,1,O=C(O)c1ccc(Cl)cc1,le15,0,0,0,1,randonly selected as training point or test point
"Phenol, 4-chloro-3,5-dimethyl-",379.05,1,Cc1cc(O)cc(C)c1Cl,le15,0,0,0,0,randonly selected as training point or test point
1-chloro-4-ethoxybenzene,356.85,1,CCOc1ccc(Cl)cc1,le15,0,0,0,0,randonly selected as training point or test point
2-chloroethoxybenzene,373.75,1,ClCCOc1ccccc1,le15,0,0,0,0,randonly selected as training point or test point
"Benzene, 1-(chloromethyl)-4-methoxy- (9CI)",382.55,1,COc1ccc(CCl)cc1,le15,0,0,0,0,randonly selected as training point or test point
1-chloro-3-ethoxybenzene,356.85,1,CCOc1cccc(Cl)c1,le15,0,0,0,0,randonly selected as training point or test point
1-chloro-2-ethoxybenzene,355.45,1,CCOc1ccccc1Cl,le15,0,0,0,0,randonly selected as training point or test point
"Phenol, 2-chloro-4,5-dimethyl- (9CI)",370.25,1,Cc1cc(O)c(Cl)cc1C,le15,0,0,0,0,randonly selected as training point or test point
3-chloropropyl carbonochloridate,347.65,1,O=C(Cl)OCCCCl,le15,0,0,0,0,randonly selected as training point or test point
"ethyl 2,2-dichloroacetate",328.75,1,CCOC(=O)C(Cl)Cl,le15,0,0,0,0,randonly selected as training point or test point
"p-Dioxane, 2,3-dichloro-, trans-",367.05,1,Cl[C@@H]1OCCO[C@H]1Cl,le15,0,0,0,0,randonly selected as training point or test point
5-Fluoro-2-nitrophenol,364.15,1,O=[N+]([O-])c1ccc(F)cc1O,le15,0,0,0,0,randonly selected as training point or test point
"Phenol, 3-fluoro-4-nitro-",422.65,1,O=[N+]([O-])c1ccc(O)cc1F,le15,0,0,0,0,randonly selected as training point or test point
"2,4-Oxazolidinedione, 5-ethyl-3,5-dimethyl-",335.05,1,CCC1(C)OC(=O)N(C)C1=O,le15,0,0,0,0,randonly selected as training point or test point
Benzenesulphonamide,417.75,1,NS(=O)(=O)c1ccccc1,le15,0,0,0,0,randonly selected as training point or test point
"Quinoline, 2,6-dimethyl-",379.65,1,Cc1ccc2nc(C)ccc2c1,le15,0,0,0,0,randonly selected as training point or test point
"2,4-dimethylquinoline",380.75,1,Cc1cc(C)c2ccccc2n1,le15,0,0,0,0,randonly selected as training point or test point
2-ethylquinoline,371.85,1,CCc1ccc2ccccc2n1,le15,0,0,0,0,randonly selected as training point or test point
"2,3-dimethylquinoline",382.85,1,Cc1cc2ccccc2nc1C,le15,0,0,0,0,randonly selected as training point or test point
3-ethylquinoline,381.15,1,CCc1cnc2ccccc2c1,le15,0,0,0,0,randonly selected as training point or test point
1-benzylpyrrole,376.35,1,c1ccc(Cn2cccc2)cc1,le15,0,0,0,0,randonly selected as training point or test point
"1-Naphthylamine, 2-methyl-",430.25,1,Cc1ccc2ccccc2c1N,le15,0,0,0,0,randonly selected as training point or test point
"3,4-dimethylquinoline",391.95,1,Cc1cnc2ccccc2c1C,le15,0,0,0,0,randonly selected as training point or test point
"6,8-dimethylquinoline",386.65,1,Cc1cc(C)c2ncccc2c1,le15,0,0,0,0,randonly selected as training point or test point
"5,8-dimethylquinoline",386.05,1,Cc1ccc(C)c2ncccc12,le15,0,0,0,0,randonly selected as training point or test point
"Cyclohexanecarboxylic acid, 4-(aminomethyl)-, trans-",408.507,1,NC[C@H]1CC[C@H](C(=O)O)CC1,le15,0,0,0,1,randonly selected as training point or test point
"2-Propenamide, N-(butoxymethyl)-",397.05,1,C=CC(=O)NCOCCCC,le15,0,0,0,0,randonly selected as training point or test point
"2-Propenoic acid, 2-methyl-, 2-(dimethylamino)ethyl ester",343.75,1,C=C(C)C(=O)OCCN(C)C,le15,0,0,0,1,randonly selected as training point or test point
"Hexanamide, 2,3-epoxy-2-ethyl-",418.95,1,CCCC1OC1(CC)C(N)=O,le15,0,0,0,0,randonly selected as training point or test point
"Butanamide, N,N-diethyl-3-oxo-",367.15,1,CCN(CC)C(=O)CC(C)=O,le15,0,0,0,0,randonly selected as training point or test point
"2-Pentanone, 5-(diethylamino)-",338.15,1,CCN(CC)CCCC(C)=O,le15,0,0,0,0,randonly selected as training point or test point
"N,N-diethyl-3-methylbutanamide",351.85,1,CCN(CC)C(=O)CC(C)C,le15,0,0,0,0,randonly selected as training point or test point
"Formamide, N,N-di-n-butyl-",373.15,1,CCCCN(C=O)CCCC,le15,0,0,0,0,randonly selected as training point or test point
"1-Butanamine, 3-methyl-N-(3-methylbutyl)-",319.75,1,CC(C)CCNCCC(C)C,le15,0,0,0,0,randonly selected as training point or test point
"Octylamine, N,N-dimethyl- (8CI)",338.15,1,CCCCCCCCN(C)C,le15,0,0,0,0,randonly selected as training point or test point
1decanamine,359.0,1,CCCCCCCCCCN,le15,0,0,0,0,randonly selected as training point or test point
"1,3-Butadiene, 1,1,2-trichloro-",349.15,1,C=CC(Cl)=C(Cl)Cl,le15,0,0,0,0,randonly selected as training point or test point
2-bromo-2-chloropropane,290.65,1,CC(C)(Cl)Br,le15,0,0,0,0,randonly selected as training point or test point
2-bromo-1-chloropropane,300.65,1,CC(Br)CCl,le15,0,0,0,0,randonly selected as training point or test point
1-bromo-2-chloropropane,300.7,1,CC(Cl)CBr,le15,0,0,0,0,randonly selected as training point or test point
"Propane, 1-bromo-3-chloro-",311.15,1,ClCCCBr,le15,0,0,0,0,randonly selected as training point or test point
"2-Pyridinecarboxylic acid, 6-chloro- (9CI)",422.413,1,O=C(O)c1cccc(Cl)n1,le15,0,0,0,1,randonly selected as training point or test point
4-chloro-2-methoxyaniline,382.05,1,COc1cc(Cl)ccc1N,le15,0,0,0,0,randonly selected as training point or test point
"1,1-dichloro-1-nitropropane",319.05,1,CCC(Cl)(Cl)[N+](=O)[O-],le15,0,0,0,0,randonly selected as training point or test point
3-bromopyridine,324.85,1,Brc1cccnc1,le15,0,0,0,0,randonly selected as training point or test point
"Pyridine, 2-bromo-",327.55,1,Brc1ccccn1,le15,0,0,0,0,randonly selected as training point or test point
"Benzoic acid, 2,6-difluoro-",366.65,1,O=C(O)c1c(F)cccc1F,le15,0,0,0,1,randonly selected as training point or test point
"Styrene, alpha,beta,beta-trifluoro-",305.35,1,FC(F)=C(F)c1ccccc1,le15,0,0,0,0,randonly selected as training point or test point
"Urea, N-(2,5-dioxo-4-imidazolidinyl)-",505.15,1,NC(=O)NC1NC(=O)NC1=O,le15,0,0,0,0,randonly selected as training point or test point
"1,4-Naphthalenedione",414.15,1,O=C1C=CC(=O)c2ccccc21,le15,0,0,0,0,randonly selected as training point or test point
"1,2-Naphthalenedione",390.55,1,O=C1C=Cc2ccccc2C1=O,le15,0,0,0,0,randonly selected as training point or test point
"ethyl 2,4-dioxopentanoate",358.905,1,CCOC(=O)C(=O)CC(C)=O,le15,0,0,0,0,randonly selected as training point or test point
"2-Propene-1,1-diol, diacetate",351.45,1,C=CC(OC(C)=O)OC(C)=O,le15,0,0,0,0,randonly selected as training point or test point
"Butanoic acid, 2-acetyl-3-oxo-, methyl ester (9CI)",355.55,1,COC(=O)C(C(C)=O)C(C)=O,le15,0,0,0,1,randonly selected as training point or test point
"2-Butenedioic acid, 2-methyl-, dimethyl ester, (E)-",364.65,1,COC(=O)/C=C(\C)C(=O)OC,le15,0,0,0,1,randonly selected as training point or test point
"1,3-Cyclopentanedicarboxylic acid",435.05,1,O=C(O)C1CCC(C(=O)O)C1,le15,0,0,0,1,randonly selected as training point or test point
"Pipecolic acid, 1-nitroso-",463.25,1,O=NN1CCCCC1C(=O)O,le15,0,0,0,1,randonly selected as training point or test point
Methyl 1-naphthyl ether,375.45,1,COc1cccc2ccccc12,le15,0,0,0,0,randonly selected as training point or test point
naphthalen-1-ylmethanol,427.15,1,OCc1cccc2ccccc12,le15,0,0,0,0,randonly selected as training point or test point
Methyl 2-naphthyl ether,375.45,1,COc1ccc2ccccc2c1,le15,0,0,0,0,randonly selected as training point or test point
2-methylpropanoyl 2-methylpropanoate,332.55,1,CC(C)C(=O)OC(=O)C(C)C,le15,0,0,0,0,randonly selected as training point or test point
"Butanoic acid, anhydride",355.15,1,CCCC(=O)OC(=O)CCC,le15,0,0,0,1,randonly selected as training point or test point
"1,8-Naphthalenediamine",471.85,1,Nc1cccc2cccc(N)c12,le15,0,0,0,0,randonly selected as training point or test point
3-(1-methylpyrrol-2-yl)pyridine,397.95,1,Cn1cccc1-c1cccnc1,le15,0,0,0,0,randonly selected as training point or test point
"Butanoic acid, 3-oxo-, butyl ester",352.75,1,CCCCOC(=O)CC(C)=O,le15,0,0,0,1,randonly selected as training point or test point
"ethyl 2,2-dimethyl-3-oxobutanoate",386.85,1,CCOC(=O)C(C)(C)C(C)=O,le15,0,0,0,0,randonly selected as training point or test point
ethyl 2-ethyl-3-oxobutanoate,348.85,1,CCOC(=O)C(CC)C(C)=O,le15,0,0,0,0,randonly selected as training point or test point
oxolan-2-ylmethyl propanoate,365.15,1,CCC(=O)OCC1CCCO1,le15,0,0,0,0,randonly selected as training point or test point
"Ethene, 1,1'-(oxybis(2,1-ethanediyloxy))bis-",335.35,1,C=COCCOCCOC=C,le15,0,0,0,0,randonly selected as training point or test point
3-methyl-1-phenylpyrazole,381.15,1,Cc1ccn(-c2ccccc2)n1,le15,0,0,0,0,randonly selected as training point or test point
tert-butyl 3-oxobutanoate,339.65,1,CC(=O)CC(=O)OC(C)(C)C,le15,0,0,0,0,randonly selected as training point or test point
"Naphthalene-1,4-diamine",484.65,1,Nc1ccc(N)c2ccccc12,le15,0,0,0,0,randonly selected as training point or test point
"Hexanoic acid, 3-oxo-, ethyl ester",351.45,1,CCCC(=O)CC(=O)OCC,le15,0,0,0,1,randonly selected as training point or test point
"1H-Pyrazole, 3-methyl-5-phenyl- (9CI)",429.35,1,Cc1cc(-c2ccccc2)[nH]n1,le15,0,0,0,0,randonly selected as training point or test point
2-methylquinolin-4-amine,451.15,1,Cc1cc(N)c2ccccc2n1,le15,0,0,0,0,randonly selected as training point or test point
"Hexanedial, 2-hydroxy-2,5-dimethyl- (9CI)",388.15,1,CC(C=O)CCC(C)(O)C=O,le15,0,0,0,0,randonly selected as training point or test point
ethyl 4-methyl-3-oxopentanoate,317.15,1,CCOC(=O)CC(=O)C(C)C,le15,0,0,0,0,randonly selected as training point or test point
"Oxirane, 2,2'-(oxybis(methylene))bis(2-methyl- (9CI)",343.25,1,CC1(COCC2(C)CO2)CO1,le15,0,0,0,0,randonly selected as training point or test point
propan-2-yl 4-oxopentanoate,357.55,1,CC(=O)CCC(=O)OC(C)C,le15,0,0,0,0,randonly selected as training point or test point
"2,3-Naphthalenediamine",485.45,1,Nc1cc2ccccc2cc1N,le15,0,0,0,0,randonly selected as training point or test point
"1,5-Naphthalenediamine",493.35,1,Nc1cccc2c(N)cccc12,le15,0,0,0,0,randonly selected as training point or test point
"2-Propenoic acid, 2-methyl-, 2-ethoxyethyl ester",344.85,1,C=C(C)C(=O)OCCOCC,le15,0,0,0,1,randonly selected as training point or test point
"Imidazole, 1-benzyl- (8CI)",414.45,1,c1ccc(Cn2ccnc2)cc1,le15,0,0,0,0,randonly selected as training point or test point
ethyl 5-oxohexanoate,342.55,1,CCOC(=O)CCCC(C)=O,le15,0,0,0,0,randonly selected as training point or test point
ButyricAnhydride,360.0,1,CCCC(=O)OC(=O)CCC,le15,0,0,0,0,randonly selected as training point or test point
tertButylAcetoAcetate,333.0,1,CC(=O)CC(=O)OC(C)(C)C,le15,0,0,0,0,randonly selected as training point or test point
ethyl piperazine-1-carboxylate,370.25,1,CCOC(=O)N1CCNCC1,le15,0,0,0,0,randonly selected as training point or test point
cyclohexen-1-ylbenzene,376.45,1,C1=C(c2ccccc2)CCCC1,le15,0,0,0,0,randonly selected as training point or test point
"Benzene, 1,3-bis(1-methylethenyl)-",364.25,1,C=C(C)c1cccc(C(=C)C)c1,le15,0,0,0,0,randonly selected as training point or test point
"Benzene, 3-cyclohexen-1-yl-",359.55,1,C1=C(c2ccccc2)CCCC1,le15,0,0,0,0,randonly selected as training point or test point
"Butanoic acid, 3-methylbutyl ester",330.95,1,CCCC(=O)OCCC(C)C,le15,0,0,0,1,randonly selected as training point or test point
"Heptanoic acid, ethyl ester",339.25,1,CCCCCCC(=O)OCC,le15,0,0,0,1,randonly selected as training point or test point
"Butanoic acid, 3-methyl-, butyl ester",335.95,1,CCCCOC(=O)CC(C)C,le15,0,0,0,1,randonly selected as training point or test point
"Octanoic acid, methyl ester",346.15,1,CCCCCCCC(=O)OC,le15,0,0,0,1,randonly selected as training point or test point
Nonanoic acid,388.05,1,CCCCCCCCC(=O)O,le15,0,0,0,1,randonly selected as training point or test point
"Acetic acid, heptyl ester",341.75,1,CCCCCCCOC(C)=O,le15,0,0,0,1,randonly selected as training point or test point
"Formic acid, octyl ester",350.35,1,CCCCCCCCOC=O,le15,0,0,0,1,randonly selected as training point or test point
"Butanoic acid, pentyl ester",340.95,1,CCCCCOC(=O)CCC,le15,0,0,0,1,randonly selected as training point or test point
"Butanoic acid, 3-methyl-, 2-methylpropyl ester",323.65,1,CC(C)COC(=O)CC(C)C,le15,0,0,0,1,randonly selected as training point or test point
"Pentanoic acid, butyl ester",337.85,1,CCCCOC(=O)CCCC,le15,0,0,0,1,randonly selected as training point or test point
ethyl 4-methylhexanoate,332.55,1,CCOC(=O)CCC(C)CC,le15,0,0,0,0,randonly selected as training point or test point
"Propionic acid, hexyl ester (6CI,7CI,8CI)",338.15,1,CCCCCCOC(=O)CC,le15,0,0,0,1,randonly selected as training point or test point
2-methyloctanoic acid,402.85,1,CCCCCCC(C)C(=O)O,le15,0,0,0,1,randonly selected as training point or test point
2-methylpropyl pentanoate,332.55,1,CCCCC(=O)OCC(C)C,le15,0,0,0,0,randonly selected as training point or test point
propyl hexanoate,324.85,1,CCCCCC(=O)OCCC,le15,0,0,0,0,randonly selected as training point or test point
"1-Butanamine, N-butyl-N-nitroso-",378.45,1,CCCCN(CCCC)N=O,le15,0,0,0,0,randonly selected as training point or test point
"1-Octanol, 3,7-dimethyl-",368.15,1,CC(C)CCCC(C)CCO,le15,0,0,0,0,randonly selected as training point or test point
"3-Octanol, 3,6-dimethyl-",368.15,1,CCC(C)CCC(C)(O)CC,le15,0,0,0,0,randonly selected as training point or test point
"Pentane, 1,1'-oxybis-",330.15,1,CCCCCOCCCCC,le15,0,0,0,0,randonly selected as training point or test point
3-ethyloctan-3-ol,354.25,1,CCCCCC(O)(CC)CC,le15,0,0,0,0,randonly selected as training point or test point
5-methyl-2-propan-2-ylhexan-1-ol,353.05,1,CC(C)CCC(CO)C(C)C,le15,0,0,0,0,randonly selected as training point or test point
Isodecyl alcohol,360.25,1,CC(C)CCCCCCCO,le15,0,0,0,0,randonly selected as training point or test point
Decan-4-ol,355.35,1,CCCCCCC(O)CCC,le15,0,0,0,0,randonly selected as training point or test point
decylalcohol,381.15,1,CCCCCCCCCCO,le15,0,0,0,0,randonly selected as training point or test point
Dipentylether,330.0,1,CCCCCOCCCCC,le15,0,0,0,0,randonly selected as training point or test point
"N,N,N',N'-tetraethylmethanediamine",315.45,1,CCN(CC)CN(CC)CC,le15,0,0,0,0,randonly selected as training point or test point
"1-N,1-N-diethylpentane-1,4-diamine",341.45,1,CCN(CC)CCCC(C)N,le15,0,0,0,0,randonly selected as training point or test point
"Benzoyl chloride, 2-fluoro-",355.15,1,O=C(Cl)c1ccccc1F,le15,0,0,0,0,randonly selected as training point or test point
3-fluorobenzoyl chloride,355.35,1,O=C(Cl)c1cccc(F)c1,le15,0,0,0,0,randonly selected as training point or test point
"Benzaldehyde, 2-chloro-6-fluoro-",374.15,1,O=Cc1c(F)cccc1Cl,le15,0,0,0,0,randonly selected as training point or test point
4-chloro-2-methoxyphenol,373.55,1,COc1cc(Cl)ccc1O,le15,0,0,0,0,randonly selected as training point or test point
"Benzene, 1-chloro-4-(methylthio)-",363.15,1,CSc1ccc(Cl)cc1,le15,0,0,0,0,randonly selected as training point or test point
"Ethane, 1,1'-thiobis(2-chloro-",362.55,1,ClCCSCCCl,le15,0,0,0,0,randonly selected as training point or test point
"Benzene, 1,4-difluoro-2-nitro-",363.15,1,O=[N+]([O-])c1cc(F)ccc1F,le15,0,0,0,0,randonly selected as training point or test point
"Benzene, 2,4-difluoro-1-nitro-",363.15,1,O=[N+]([O-])c1ccc(F)cc1F,le15,0,0,0,0,randonly selected as training point or test point
"1,3-difluoro-5-nitrobenzene",347.05,1,O=[N+]([O-])c1cc(F)cc(F)c1,le15,0,0,0,0,randonly selected as training point or test point
1-methylquinolin-2-one,379.95,1,Cn1c(=O)ccc2ccccc21,le15,0,0,0,0,randonly selected as training point or test point
"Quinoline, 4-methoxy-",362.85,1,COc1ccnc2ccccc12,le15,0,0,0,0,randonly selected as training point or test point
8-methoxyquinoline,375.85,1,COc1cccc2cccnc12,le15,0,0,0,0,randonly selected as training point or test point
6-methoxyquinoline,375.85,1,COc1ccc2ncccc2c1,le15,0,0,0,0,randonly selected as training point or test point
2-methylquinolin-8-ol,412.55,1,Cc1ccc2cccc(O)c2n1,le15,0,0,0,0,randonly selected as training point or test point
"1H-1,2,4-Triazole, 1-benzyl-",421.45,1,c1ccc(Cn2cncn2)cc1,le15,0,0,0,0,randonly selected as training point or test point
"Benzenemethanamine, N-methyl-N-2-propynyl-",356.15,1,C#CCN(C)Cc1ccccc1,le15,0,0,0,0,randonly selected as training point or test point
"3H-Indole, 2,3,3-trimethyl-",355.95,1,CC1=Nc2ccccc2C1(C)C,le15,0,0,0,0,randonly selected as training point or test point
"2,3,5-trimethyl-1H-indole",399.75,1,Cc1ccc2[nH]c(C)c(C)c2c1,le15,0,0,0,0,randonly selected as training point or test point
"1,2,3-trimethylindole",399.05,1,Cc1c(C)n(C)c2ccccc12,le15,0,0,0,0,randonly selected as training point or test point
"Thiazole, 4,5-dihydro-2-(2-propenylthio)- (9CI)",369.05,1,C=CCSC1=NCCS1,le15,0,0,0,0,randonly selected as training point or test point
"2-Propenal, 2,3,3-trichloro- (9CI)",344.25,1,O=CC(Cl)=C(Cl)Cl,le15,0,0,0,0,randonly selected as training point or test point
"1-Butene, 2,3,4-trichloro-",364.85,1,C=C(Cl)C(Cl)CCl,le15,0,0,0,0,randonly selected as training point or test point
"2-Butene, 1,2,4-trichloro-",378.65,1,ClCC=C(Cl)CCl,le15,0,0,0,0,randonly selected as training point or test point
"Isocyanic acid, p-phenylene ester (6CI,7CI,8CI)",365.55,1,O=C=Nc1ccc(N=C=O)cc1,le15,0,0,0,1,randonly selected as training point or test point
1-methyl-4-(trifluoromethyl)benzene,300.15,1,Cc1ccc(C(F)(F)F)cc1,le15,0,0,0,0,randonly selected as training point or test point
"2H-1-Benzopyran-2-one, 6-methyl-",397.45,1,Cc1ccc2oc(=O)ccc2c1,le15,0,0,0,0,randonly selected as training point or test point
"1,3-Naphthalenediol",458.65,1,Oc1cc(O)c2ccccc2c1,le15,0,0,0,0,randonly selected as training point or test point
benzenesulfonyl fluoride,360.35,1,O=S(=O)(F)c1ccccc1,le15,0,0,0,0,randonly selected as training point or test point
"1,4-Dihydroxynaphthalene",475.65,1,Oc1ccc(O)c2ccccc12,le15,0,0,0,0,randonly selected as training point or test point
3-methylchromen-2-one,393.75,1,Cc1cc2ccccc2oc1=O,le15,0,0,0,0,randonly selected as training point or test point
"2H-1-Benzopyran-2-one, 7-methyl-",399.05,1,Cc1ccc2ccc(=O)oc2c1,le15,0,0,0,0,randonly selected as training point or test point
"1,6-Dihydroxynaphthalene",466.65,1,Oc1ccc2c(O)cccc2c1,le15,0,0,0,0,randonly selected as training point or test point
Heptanedioic acid,455.05,1,O=C(O)CCCCCC(=O)O,le15,0,0,0,1,randonly selected as training point or test point
2-butylpropanedioic acid,442.55,1,CCCCC(C(=O)O)C(=O)O,le15,0,0,0,1,randonly selected as training point or test point
"1,2-Propanediol, diacetate",357.45,1,CC(=O)OCC(C)OC(C)=O,le15,0,0,0,0,randonly selected as training point or test point
"Glutaric acid, dimethyl ester (8CI)",376.45,1,COC(=O)CCCC(=O)OC,le15,0,0,0,1,randonly selected as training point or test point
dimethyl 2-methylbutanedioate,356.45,1,COC(=O)CC(C)C(=O)OC,le15,0,0,0,0,randonly selected as training point or test point
"Glutaric acid, 3,3-dimethyl- (8CI)",422.85,1,CC(C)(CC(=O)O)CC(=O)O,le15,0,0,0,1,randonly selected as training point or test point
"Propanedioic acid, diethyl ester",373.15,1,CCOC(=O)CC(=O)OCC,le15,0,0,0,1,randonly selected as training point or test point
"3-Buten-2-one, 3-methyl-4-phenyl-",369.45,1,CC(=O)C(C)=Cc1ccccc1,le15,0,0,0,0,randonly selected as training point or test point
cyclobutyl(phenyl)methanone,375.65,1,O=C(c1ccccc1)C1CCC1,le15,0,0,0,0,randonly selected as training point or test point
"Ethanol, 2-butoxy-, acetate",349.25,1,CCCCOCCOC(C)=O,le15,0,0,0,0,randonly selected as training point or test point