compound,flashpoint,pure substance,smiles,source,is_silicon,is_metallic,is_tin,is_acid,data type
2-[[3-(oxiran-2-ylmethoxy)phenoxy]methyl]oxirane,450.15,1,C1C(O1)COC2=CC(=CC=C2)OCC3CO3,pubchem,0,0,0,0,randonly selected as training point or test point
"1-N,4-N-di(butan-2-yl)benzene-1,4-diamine",414.15,1,CCC(C)NC1=CC=C(C=C1)NC(C)CC,pubchem,0,0,0,0,randonly selected as training point or test point
ethyl 2-phenylacetate,372.15,1,CCOC(=O)CC1=CC=CC=C1,pubchem,0,0,0,0,randonly selected as training point or test point
3-oxo-N-phenylbutanamide,436.15,1,CC(=O)CC(=O)NC1=CC=CC=C1,pubchem,0,0,0,0,randonly selected as training point or test point
"1,2-diphenylguanidine",471.15,1,C1=CC=C(C=C1)NC(=NC2=CC=CC=C2)N,pubchem,0,0,0,0,randonly selected as training point or test point
"InChI=1S/C5H6/c1-2-4-5-3-1/h1-4H,5H2",298.15,1,C1C=CC=C1,pubchem,0,0,0,0,randonly selected as training point or test point
"N,N-dipropylpropan-1-amine",310.15,1,CCCN(CCC)CCC,pubchem,0,0,0,0,randonly selected as training point or test point
"N,N-bis(prop-2-enyl)prop-2-en-1-amine",312.15,1,C=CCN(CC=C)CC=C,pubchem,0,0,0,0,randonly selected as training point or test point
2-[bis(2-hydroxyethyl)amino]ethanol,458.15,1,C(CO)N(CCO)CCO,pubchem,0,0,0,0,randonly selected as training point or test point
2-(dibutylamino)ethanol,372.15,1,CCCCN(CCCC)CCO,pubchem,0,0,0,0,randonly selected as training point or test point
"N,N-dibutylbutan-1-amine",358.15,1,CCCCN(CCCC)CCCC,pubchem,0,0,0,0,randonly selected as training point or test point
2-ethylhexyl acetate,361.15,1,CCCCC(CC)COC(=O)C,pubchem,0,0,0,0,randonly selected as training point or test point
2-ethylhexyl prop-2-enoate,355.15,1,CCCCC(CC)COC(=O)C=C,pubchem,0,0,0,0,randonly selected as training point or test point
bis(2-ethylhexyl) hexanedioate,469.15,1,CCCCC(CC)COC(=O)CCCCC(=O)OCC(CC)CCCC,pubchem,0,0,0,0,randonly selected as training point or test point
4-(morpholin-4-yldisulfanyl)morpholine,394.15,1,C1COCCN1SSN2CCOCC2,pubchem,0,0,0,0,randonly selected as training point or test point
phenylmethoxymethylbenzene,408.15,1,C1=CC=C(C=C1)COCC2=CC=CC=C2,pubchem,0,0,0,0,randonly selected as training point or test point
propylbenzene,321.15,1,CCCC1=CC=CC=C1,pubchem,0,0,0,0,randonly selected as training point or test point
N-ethylaniline,358.15,1,CCNC1=CC=CC=C1,pubchem,0,0,0,0,randonly selected as training point or test point
isocyanatobenzene,329.15,1,C1=CC=C(C=C1)N=C=O,pubchem,0,0,0,0,randonly selected as training point or test point
ethoxybenzene,336.15,1,CCOC1=CC=CC=C1,pubchem,0,0,0,0,randonly selected as training point or test point
"2-ethoxy-3,4-dihydro-2H-pyran",310.15,1,CCOC1CCC=CO1,pubchem,0,0,0,0,randonly selected as training point or test point
"N,N-dimethyl-1-phenylmethanamine",330.15,1,CN(C)CC1=CC=CC=C1,pubchem,0,0,0,0,randonly selected as training point or test point
N-(4-methylphenyl)acetamide,441.15,1,CC1=CC=C(C=C1)NC(=O)C,pubchem,0,0,0,0,randonly selected as training point or test point
1-chloro-4-isocyanatobenzene,383.15,1,C1=CC(=CC=C1N=C=O)Cl,pubchem,0,0,0,0,randonly selected as training point or test point
butylbenzene,344.15,1,CCCCC1=CC=CC=C1,pubchem,0,0,0,0,randonly selected as training point or test point
decylbenzene,380.15,1,CCCCCCCCCCC1=CC=CC=C1,pubchem,0,0,0,0,randonly selected as training point or test point
2-ethylhexan-1-amine,333.15,1,CCCCC(CC)CN,pubchem,0,0,0,0,randonly selected as training point or test point
2-ethylhexan-1-ol,354.15,1,CCCCC(CC)CO,pubchem,0,0,0,0,randonly selected as training point or test point
1-(bromomethyl)-4-methylbenzene,371.15,1,CC1=CC=C(C=C1)CBr,pubchem,0,0,0,0,randonly selected as training point or test point
4-methylbenzonitrile,358.15,1,CC1=CC=C(C=C1)C#N,pubchem,0,0,0,0,randonly selected as training point or test point
4-chlorobenzaldehyde,361.15,1,C1=CC(=CC=C1C=O)Cl,pubchem,0,0,0,0,randonly selected as training point or test point
5-ethyl-2-methylpyridine,341.15,1,CCC1=CN=C(C=C1)C,pubchem,0,0,0,0,randonly selected as training point or test point
4-methoxyaniline,278.15,1,COC1=CC=C(C=C1)N,pubchem,0,0,0,0,randonly selected as training point or test point
"1,4-diethylbenzene",329.15,1,CCC1=CC=C(C=C1)CC,pubchem,0,0,0,0,randonly selected as training point or test point
[4-(hydroxymethyl)cyclohexyl]methanol,439.15,1,C1CC(CCC1CO)CO,pubchem,0,0,0,0,randonly selected as training point or test point
2-methylpentan-1-ol,327.15,1,CCCC(C)CO,pubchem,0,0,0,0,randonly selected as training point or test point
ethyl 2-bromoacetate,321.15,1,CCOC(=O)CBr,pubchem,0,0,0,0,randonly selected as training point or test point
ethyl propanoate,285.15,1,CCC(=O)OCC,pubchem,0,0,0,0,randonly selected as training point or test point
ethyl 2-chloroacetate,311.15,1,CCOC(=O)CCl,pubchem,0,0,0,0,randonly selected as training point or test point
ethyl N-methylcarbamate,346.15,1,CCOC(=O)NC,pubchem,0,0,0,0,randonly selected as training point or test point
methyl 3-oxobutanoate,343.15,1,CC(=O)CC(=O)OC,pubchem,0,0,0,0,randonly selected as training point or test point
butan-2-yl acetate,290.15,1,CCC(C)OC(=O)C,pubchem,0,0,0,0,randonly selected as training point or test point
diethyl propanedioate,366.15,1,CCOC(=O)CC(=O)OCC,pubchem,0,0,0,0,randonly selected as training point or test point
ethyl butanoate,297.15,1,CCCC(=O)OCC,pubchem,0,0,0,0,randonly selected as training point or test point
ethyl 2-cyanoacetate,383.15,1,CCOC(=O)CC#N,pubchem,0,0,0,0,randonly selected as training point or test point
"1,1-diethoxyethane",252.15,1,CCOC(C)OCC,pubchem,0,0,0,0,randonly selected as training point or test point
diethyl carbonate,298.15,1,CCOC(=O)OCC,pubchem,0,0,0,0,randonly selected as training point or test point
2-[2-hydroxyethyl(methyl)amino]ethanol,400.15,1,CN(CCO)CCO,pubchem,0,0,0,0,randonly selected as training point or test point
azepan-2-one,398.15,1,C1CCC(=O)NCC1,pubchem,0,0,0,0,randonly selected as training point or test point
dibutyl hexanedioate,386.15,1,CCCCOC(=O)CCCCC(=O)OCCCC,pubchem,0,0,0,0,randonly selected as training point or test point
2-ethyl-N-(2-ethylhexyl)hexan-1-amine,405.15,1,CCCCC(CC)CNCC(CC)CCCC,pubchem,0,0,0,0,randonly selected as training point or test point
"3,7-dimethyloct-6-enal",347.15,1,CC(CCC=C(C)C)CC=O,pubchem,0,0,0,0,randonly selected as training point or test point
butanoyl butanoate,355.15,1,CCCC(=O)OC(=O)CCC,pubchem,0,0,0,0,randonly selected as training point or test point
heptan-3-one,319.15,1,CCCCC(=O)CC,pubchem,0,0,0,0,randonly selected as training point or test point
1-bromo-4-methylbenzene,358.15,1,CC1=CC=C(C=C1)Br,pubchem,0,0,0,0,randonly selected as training point or test point
"1,4-xylene",300.15,1,CC1=CC=C(C=C1)C,pubchem,0,0,0,0,randonly selected as training point or test point
1-chloro-4-methylbenzene,413.15,1,CC1=CC=C(C=C1)Cl,pubchem,0,0,0,0,randonly selected as training point or test point
4-chloroaniline,386.15,1,C1=CC(=CC=C1N)Cl,pubchem,0,0,0,0,randonly selected as training point or test point
4-methylaniline,360.15,1,CC1=CC=C(C=C1)N,pubchem,0,0,0,0,randonly selected as training point or test point
"benzene-1,4-diamine",428.15,1,C1=CC(=CC=C1N)N,pubchem,0,0,0,0,randonly selected as training point or test point
2-methylpropyl prop-2-enoate,303.15,1,CC(C)COC(=O)C=C,pubchem,0,0,0,0,randonly selected as training point or test point
dimethyl butanedioate,358.15,1,COC(=O)CCC(=O)OC,pubchem,0,0,0,0,randonly selected as training point or test point
5-methylheptan-3-one,316.15,1,CCC(C)CC(=O)CC,pubchem,0,0,0,0,randonly selected as training point or test point
methyl hexanoate,346.15,1,CCCCCC(=O)OC,pubchem,0,0,0,0,randonly selected as training point or test point
2-cyanoethyl prop-2-enoate,397.15,1,C=CC(=O)OCCC#N,pubchem,0,0,0,0,randonly selected as training point or test point
2-(2-carbonochloridoyloxyethoxy)ethyl carbonochloridate,568.15,1,C(COC(=O)Cl)OCCOC(=O)Cl,pubchem,0,0,0,0,randonly selected as training point or test point
octyl 8-(3-octyloxiran-2-yl)octanoate,490.15,1,CCCCCCCCC1C(O1)CCCCCCCC(=O)OCCCCCCCC,pubchem,0,0,0,0,randonly selected as training point or test point
3-(oxiran-2-yl)-7-oxabicyclo[4.1.0]heptane,383.15,1,C1CC2C(O2)CC1C3CO3,pubchem,0,0,0,0,randonly selected as training point or test point
2-ethyloxirane,261.15,1,CCC1CO1,pubchem,0,0,0,0,randonly selected as training point or test point
2-(chloromethyl)oxirane,307.15,1,C1C(O1)CCl,pubchem,0,0,0,0,randonly selected as training point or test point
oxiran-2-ylmethyl prop-2-enoate,334.15,1,C=CC(=O)OCC1CO1,pubchem,0,0,0,0,randonly selected as training point or test point
oxiran-2-ylmethyl 2-methylprop-2-enoate,356.15,1,CC(=C)C(=O)OCC1CO1,pubchem,0,0,0,0,randonly selected as training point or test point
2-(prop-2-enoxymethyl)oxirane,330.15,1,C=CCOCC1CO1,pubchem,0,0,0,0,randonly selected as training point or test point
1-bromopropane,299.15,1,CCCBr,pubchem,0,0,0,0,randonly selected as training point or test point
3-bromoprop-1-ene,271.15,1,C=CCBr,pubchem,0,0,0,0,randonly selected as training point or test point
3-bromoprop-1-yne,283.15,1,C#CCBr,pubchem,0,0,0,0,randonly selected as training point or test point
butane,213.15,1,CCCC,pubchem,0,0,0,0,randonly selected as training point or test point
but-1-ene,194.15,1,CCC=C,pubchem,0,0,0,0,randonly selected as training point or test point
"buta-1,3-diene",197.15,1,C=CC=C,pubchem,0,0,0,0,randonly selected as training point or test point
prop-2-enal,247.15,1,C=CC=O,pubchem,0,0,0,0,randonly selected as training point or test point
propane-1-thiol,258.15,1,CCCS,pubchem,0,0,0,0,randonly selected as training point or test point
3-chloroprop-1-ene,241.15,1,C=CCCl,pubchem,0,0,0,0,randonly selected as training point or test point
propan-1-amine,236.15,1,CCCN,pubchem,0,0,0,0,randonly selected as training point or test point
prop-2-en-1-amine,244.15,1,C=CCN,pubchem,0,0,0,0,randonly selected as training point or test point
propanenitrile,275.15,1,CCC#N,pubchem,0,0,0,0,randonly selected as training point or test point
prop-2-enenitrile,273.15,1,C=CC#N,pubchem,0,0,0,0,randonly selected as training point or test point
2-chloroacetonitrile,321.15,1,C(C#N)Cl,pubchem,0,0,0,0,randonly selected as training point or test point
prop-2-en-1-ol,295.15,1,C=CCO,pubchem,0,0,0,0,randonly selected as training point or test point
prop-2-yn-1-ol,306.15,1,C#CCO,pubchem,0,0,0,0,randonly selected as training point or test point
oxaldehyde,493.15,1,C(=O)C=O,pubchem,0,0,0,0,randonly selected as training point or test point
methoxyethene,217.15,1,COC=C,pubchem,0,0,0,0,randonly selected as training point or test point
chloro(methoxy)methane,273.15,1,COCCl,pubchem,0,0,0,0,randonly selected as training point or test point
methyl formate,241.15,1,COC=O,pubchem,0,0,0,0,randonly selected as training point or test point
trichloro(prop-2-enyl)silane,308.15,1,C=CC[Si](Cl)(Cl)Cl,pubchem,1,1,0,0,randonly selected as training point or test point
"2,4,4-trimethylpent-1-ene",275.15,1,CC(=C)CC(C)(C)C,pubchem,0,0,0,0,randonly selected as training point or test point
"2,4,4-trimethylpent-2-ene",275.15,1,CC(=CC(C)(C)C)C,pubchem,0,0,0,0,randonly selected as training point or test point
"2-methylpentane-2,4-diol",366.15,1,CC(CC(C)(C)O)O,pubchem,0,0,0,0,randonly selected as training point or test point
dibutyl hydrogen phosphate,461.15,1,CCCCOP(=O)(O)OCCCC,pubchem,0,0,0,0,randonly selected as training point or test point
4-methoxy-4-methylpentan-2-one,334.15,1,CC(=O)CC(C)(C)OC,pubchem,0,0,0,0,randonly selected as training point or test point
trichloro(pentyl)silane,336.15,1,CCCCC[Si](Cl)(Cl)Cl,pubchem,1,1,0,0,randonly selected as training point or test point
2-bromopentane,294.15,1,CCCC(C)Br,pubchem,0,0,0,0,randonly selected as training point or test point
2-methylpentane,244.15,1,CCCC(C)C,pubchem,0,0,0,0,randonly selected as training point or test point
pentan-2-one,280.15,1,CCCC(=O)C,pubchem,0,0,0,0,randonly selected as training point or test point
"butane-1,3-diol",394.15,1,CC(CCO)O,pubchem,0,0,0,0,randonly selected as training point or test point
3-hydroxybutanal,339.15,1,CC(CC=O)O,pubchem,0,0,0,0,randonly selected as training point or test point
1-methoxypropan-2-ol,309.15,1,CC(COC)O,pubchem,0,0,0,0,randonly selected as training point or test point
2-(dimethylamino)ethanol,314.15,1,CN(C)CCO,pubchem,0,0,0,0,randonly selected as training point or test point
1-nitropropane,307.15,1,CCC[N+](=O)[O-],pubchem,0,0,0,0,randonly selected as training point or test point
ethenyl acetate,265.15,1,CC(=O)OC=C,pubchem,0,0,0,0,randonly selected as training point or test point
4-methylpentan-2-amine,286.15,1,CC(C)CC(C)N,pubchem,0,0,0,0,randonly selected as training point or test point
4-methylpentan-2-one,296.15,1,CC(C)CC(=O)C,pubchem,0,0,0,0,randonly selected as training point or test point
4-methylpentan-2-ol,314.15,1,CC(C)CC(C)O,pubchem,0,0,0,0,randonly selected as training point or test point
N-propan-2-ylpropan-2-amine,272.15,1,CC(C)NC(C)C,pubchem,0,0,0,0,randonly selected as training point or test point
2-propan-2-yloxypropane,245.15,1,CC(C)OC(C)C,pubchem,0,0,0,0,randonly selected as training point or test point
propan-2-yl acetate,275.15,1,CC(C)OC(=O)C,pubchem,0,0,0,0,randonly selected as training point or test point
prop-1-en-2-yl acetate,289.15,1,CC(=C)OC(=O)C,pubchem,0,0,0,0,randonly selected as training point or test point
propan-2-yl carbonochloridate,289.15,1,CC(C)OC(=O)Cl,pubchem,0,0,0,0,randonly selected as training point or test point
acetyl acetate,322.15,1,CC(=O)OC(=O)C,pubchem,0,0,0,0,randonly selected as training point or test point
5-methyloxolan-2-one,354.15,1,CC1CCC(=O)O1,pubchem,0,0,0,0,randonly selected as training point or test point
"oxolane-2,5-dione",430.15,1,C1CC(=O)OC1=O,pubchem,0,0,0,0,randonly selected as training point or test point
"furan-2,5-dione",376.15,1,C1=CC(=O)OC1=O,pubchem,0,0,0,0,randonly selected as training point or test point
"4-methyl-1,3-dioxolan-2-one",389.15,1,CC1COC(=O)O1,pubchem,0,0,0,0,randonly selected as training point or test point
"1,3-xylene",302.15,1,CC1=CC(=CC=C1)C,pubchem,0,0,0,0,randonly selected as training point or test point
1-chloro-3-methylbenzene,325.15,1,CC1=CC(=CC=C1)Cl,pubchem,0,0,0,0,randonly selected as training point or test point
3-chloroaniline,397.15,1,C1=CC(=CC(=C1)Cl)N,pubchem,0,0,0,0,randonly selected as training point or test point
3-methylaniline,359.15,1,CC1=CC(=CC=C1)N,pubchem,0,0,0,0,randonly selected as training point or test point
"benzene-1,3-diamine",411.15,1,C1=CC(=CC(=C1)N)N,pubchem,0,0,0,0,randonly selected as training point or test point
1-chloro-2-(1-chloropropan-2-yloxy)propane,358.15,1,CC(CCl)OC(C)CCl,pubchem,0,0,0,0,randonly selected as training point or test point
1-methoxypropan-2-yl acetate,319.15,1,CC(COC)OC(=O)C,pubchem,0,0,0,0,randonly selected as training point or test point
"1,3,5-trimethylbenzene",323.15,1,CC1=CC(=CC(=C1)C)C,pubchem,0,0,0,0,randonly selected as training point or test point
"3,5-dimethylphenol",353.15,1,CC1=CC(=CC(=C1)O)C,pubchem,0,0,0,0,randonly selected as training point or test point
"3,5-dimethylaniline",366.15,1,CC1=CC(=CC(=C1)N)C,pubchem,0,0,0,0,randonly selected as training point or test point
"1,3,5-trichlorobenzene",380.15,1,C1=C(C=C(C=C1Cl)Cl)Cl,pubchem,0,0,0,0,randonly selected as training point or test point
"2,4,6-trimethylpyridine",331.15,1,CC1=CC(=NC(=C1)C)C,pubchem,0,0,0,0,randonly selected as training point or test point
"2,6-dimethylheptan-4-ol",347.15,1,CC(C)CC(CC(C)C)O,pubchem,0,0,0,0,randonly selected as training point or test point
"2,6-dimethylheptan-4-one",333.15,1,CC(C)CC(=O)CC(C)C,pubchem,0,0,0,0,randonly selected as training point or test point
4-methylpentan-2-yl acetate,318.15,1,CC(C)CC(C)OC(=O)C,pubchem,0,0,0,0,randonly selected as training point or test point
bromobenzene,324.15,1,C1=CC=C(C=C1)Br,pubchem,0,0,0,0,randonly selected as training point or test point
methylcyclohexane,269.15,1,CC1CCCCC1,pubchem,0,0,0,0,randonly selected as training point or test point
4-methylpyridine,330.15,1,CC1=CC=NC=C1,pubchem,0,0,0,0,randonly selected as training point or test point
chlorobenzene,297.15,1,C1=CC=C(C=C1)Cl,pubchem,0,0,0,0,randonly selected as training point or test point
cyclohexanamine,304.15,1,C1CCC(CC1)N,pubchem,0,0,0,0,randonly selected as training point or test point
cyclohexanol,341.15,1,C1CCC(CC1)O,pubchem,0,0,0,0,randonly selected as training point or test point
cyclohexanone,317.15,1,C1CCC(=O)CC1,pubchem,0,0,0,0,randonly selected as training point or test point
benzenethiol,326.15,1,C1=CC=C(C=C1)S,pubchem,0,0,0,0,randonly selected as training point or test point
3-methylpyridine,309.15,1,CC1=CN=CC=C1,pubchem,0,0,0,0,randonly selected as training point or test point
4-methylmorpholine,297.15,1,CN1CCOCC1,pubchem,0,0,0,0,randonly selected as training point or test point
2-methylpyridine,309.15,1,CC1=CC=CC=N1,pubchem,0,0,0,0,randonly selected as training point or test point
butyl 3-methylbutanoate,326.15,1,CCCCOC(=O)CC(C)C,pubchem,0,0,0,0,randonly selected as training point or test point
butyl butanoate,326.15,1,CCCCOC(=O)CCC,pubchem,0,0,0,0,randonly selected as training point or test point
dihexyl nonanedioate,477.15,1,CCCCCCOC(=O)CCCCCCCC(=O)OCCCCCC,pubchem,0,0,0,0,randonly selected as training point or test point
dibutyl decanedioate,451.15,1,CCCCOC(=O)CCCCCCCCC(=O)OCCCC,pubchem,0,0,0,0,randonly selected as training point or test point
pentanoic acid,362.15,1,CCCCC(=O)O,pubchem,0,0,0,1,randonly selected as training point or test point
1-ethenoxy-2-methylpropane,264.15,1,CC(C)COC=C,pubchem,0,0,0,0,randonly selected as training point or test point
"N',N'-dimethylpropane-1,3-diamine",289.15,1,CN(C)CCCN,pubchem,0,0,0,0,randonly selected as training point or test point
2-propan-2-yloxyethanol,306.15,1,CC(C)OCCO,pubchem,0,0,0,0,randonly selected as training point or test point
propyl acetate,287.15,1,CCCOC(=O)C,pubchem,0,0,0,0,randonly selected as training point or test point
propyl carbonochloridate,223.15,1,CCCOC(=O)Cl,pubchem,0,0,0,0,randonly selected as training point or test point
"1,3-dibromopropane",239.15,1,C(CBr)CBr,pubchem,0,0,0,0,randonly selected as training point or test point
1-bromobutane,291.15,1,CCCCBr,pubchem,0,0,0,0,randonly selected as training point or test point
pentane,224.15,1,CCCCC,pubchem,0,0,0,0,randonly selected as training point or test point
pent-1-ene,222.15,1,CCCC=C,pubchem,0,0,0,0,randonly selected as training point or test point
1-chlorobutane,266.15,1,CCCCCl,pubchem,0,0,0,0,randonly selected as training point or test point
1-bromo-3-chloropropane,330.15,1,C(CCl)CBr,pubchem,0,0,0,0,randonly selected as training point or test point
butan-1-amine,261.15,1,CCCCN,pubchem,0,0,0,0,randonly selected as training point or test point
butanenitrile,290.15,1,CCCC#N,pubchem,0,0,0,0,randonly selected as training point or test point
propanedinitrile,403.15,1,C(C#N)C#N,pubchem,0,0,0,0,randonly selected as training point or test point
butane-1-thiol,286.15,1,CCCCS,pubchem,0,0,0,0,randonly selected as training point or test point
"propane-1,3-dithiol",332.15,1,C(CS)CS,pubchem,0,0,0,0,randonly selected as training point or test point
2-(methylamino)ethanol,347.15,1,CNCCO,pubchem,0,0,0,0,randonly selected as training point or test point
2-methoxyethanol,315.15,1,COCCO,pubchem,0,0,0,0,randonly selected as training point or test point
dimethoxymethane,255.15,1,COCOC,pubchem,0,0,0,0,randonly selected as training point or test point
N-ethylethanamine,244.15,1,CCNCC,pubchem,0,0,0,0,randonly selected as training point or test point
ethyl formate,253.15,1,CCOC=O,pubchem,0,0,0,0,randonly selected as training point or test point
ethyl nitrite,238.15,1,CCON=O,pubchem,0,0,0,0,randonly selected as training point or test point
1H-pyrrole,312.15,1,C1=CNC=C1,pubchem,0,0,0,0,randonly selected as training point or test point
oxolane,259.15,1,C1CCOC1,pubchem,0,0,0,0,randonly selected as training point or test point
thiophene,272.15,1,C1=CSC=C1,pubchem,0,0,0,0,randonly selected as training point or test point
2-tert-butylperoxy-2-methylpropane,291.15,1,CC(C)(C)OOC(C)(C)C,pubchem,0,0,0,0,randonly selected as training point or test point