compound,flashpoint,pure substance,smiles,source,is_silicon,is_metallic,is_tin,is_acid,data type
"3-Hexen-2-one, 5-methyl-",320.65,1,CC(=O)C=CC(C)C,le15,0,0,0,0,randonly selected as training point or test point
1-cyclopentylethanone,320.15,1,CC(=O)C1CCCC1,le15,0,0,0,0,randonly selected as training point or test point
"3-Pentanol, 3-ethynyl-",310.95,1,C#CC(O)(CC)CC,le15,0,0,0,0,randonly selected as training point or test point
1-Heptyn-3-ol,323.95,1,C#CC(O)CCCC,le15,0,0,0,0,randonly selected as training point or test point
5-Methyl-1-hexyn-3-ol,323.25,1,C#CC(O)CC(C)C,le15,0,0,0,0,randonly selected as training point or test point
cycloheptanone,330.15,1,O=C1CCCCCC1,le15,0,0,0,0,randonly selected as training point or test point
"Cyclohexanone, 4-methyl-",319.05,1,CC1CCC(=O)CC1,le15,0,0,0,0,randonly selected as training point or test point
"1-Pentyn-3-ol, 3,4-dimethyl-",310.35,1,C#CC(C)(O)C(C)C,le15,0,0,0,0,randonly selected as training point or test point
cyclohexanecarbaldehyde,314.15,1,O=CC1CCCCC1,le15,0,0,0,0,randonly selected as training point or test point
(E)-hept-2-enal,326.85,1,CCCC/C=C/C=O,le15,0,0,0,0,randonly selected as training point or test point
"Ether, 2-butenyl propenyl",287.55,1,CC=CCOC=CC,le15,0,0,0,0,randonly selected as training point or test point
2methylcyclohexanone,321.0,1,CC1CCCCC1=O,le15,0,0,0,0,randonly selected as training point or test point
Cycloheptanone,358.0,1,O=C1CCCCCC1,le15,0,0,0,0,randonly selected as training point or test point
"1,4-Diazabicyclo(2.2.2)octane",335.35,1,C1CN2CCN1CC2,le15,0,0,0,0,randonly selected as training point or test point
"Hydrazine, 1,1-di-2-propenyl- (9CI)",327.15,1,C=CCN(N)CC=C,le15,0,0,0,0,randonly selected as training point or test point
"Hexanenitrile, 6-amino-",366.75,1,N#CCCCCCN,le15,0,0,0,0,randonly selected as training point or test point
"Acetonitrile, (diethylamino)-",327.05,1,CCN(CC)CC#N,le15,0,0,0,0,randonly selected as training point or test point
"2,3-dimethylthiophene",298.95,1,Cc1ccsc1C,le15,0,0,0,0,randonly selected as training point or test point
"2,4-dimethylthiophene",296.15,1,Cc1csc(C)c1,le15,0,0,0,0,randonly selected as training point or test point
2-ethylthiophene,294.25,1,CCc1cccs1,le15,0,0,0,0,randonly selected as training point or test point
"2,5-dimethylthiophene",297.05,1,Cc1ccc(C)s1,le15,0,0,0,0,randonly selected as training point or test point
3-ethylthiophene,295.95,1,CCc1ccsc1,le15,0,0,0,0,randonly selected as training point or test point
"1-Pentene, 2,4,4-trimethyl-",267.05,1,C=C(C)CC(C)(C)C,le15,0,0,0,0,randonly selected as training point or test point
(E)-oct-2-ene,289.75,1,C/C=C/CCCCC,le15,0,0,0,0,randonly selected as training point or test point
"2,3,4-trimethylpent-2-ene",285.95,1,CC(C)=C(C)C(C)C,le15,0,0,0,0,randonly selected as training point or test point
"1,1-dimethylcyclohexane",280.35,1,CC1(C)CCCCC1,le15,0,0,0,0,randonly selected as training point or test point
(E)-oct-4-ene,294.25,1,CCC/C=C/CCC,le15,0,0,0,0,randonly selected as training point or test point
"(1R,2R)-1-ethyl-2-methylcyclopentane",286.65,1,CC[C@@H]1CCC[C@H]1C,le15,0,0,0,0,randonly selected as training point or test point
"Heptane, 3-methylene-",283.55,1,C=C(CC)CCCC,le15,0,0,0,0,randonly selected as training point or test point
"(1R,3R)-1,3-dimethylcyclohexane",282.55,1,C[C@@H]1CCC[C@@H](C)C1,le15,0,0,0,0,randonly selected as training point or test point
"1,2,4-trimethylcyclopentane",282.35,1,CC1CC(C)C(C)C1,le15,0,0,0,0,randonly selected as training point or test point
3-ethylhex-1-ene,288.65,1,C=CC(CC)CCC,le15,0,0,0,0,randonly selected as training point or test point
3-methyl-4-methylidenehexane,279.85,1,C=C(CC)C(C)CC,le15,0,0,0,0,randonly selected as training point or test point
"3,3-dimethylhex-1-ene",283.85,1,C=CC(C)(C)CCC,le15,0,0,0,0,randonly selected as training point or test point
propan-2-ylcyclopentane,287.25,1,CC(C)C1CCCC1,le15,0,0,0,0,randonly selected as training point or test point
methylcycloheptane,293.05,1,CC1CCCCCC1,le15,0,0,0,0,randonly selected as training point or test point
"1,1,2-trimethylcyclopentane",279.55,1,CC1CCCC1(C)C,le15,0,0,0,0,randonly selected as training point or test point
(E)-4-methylhept-3-ene,282.35,1,CC/C=C(\C)CCC,le15,0,0,0,0,randonly selected as training point or test point
"1,1,3-trimethylcyclopentane",279.55,1,CC1CCC(C)(C)C1,le15,0,0,0,0,randonly selected as training point or test point
"2,3-dimethylhex-2-ene",288.75,1,CCCC(C)=C(C)C,le15,0,0,0,0,randonly selected as training point or test point
5-methylhept-1-ene,288.65,1,C=CCCC(C)CC,le15,0,0,0,0,randonly selected as training point or test point
(4R)-4-methylhept-1-ene,288.65,1,C=CC[C@H](C)CCC,le15,0,0,0,0,randonly selected as training point or test point
"3,4-dimethylhex-1-ene",283.85,1,C=CC(C)C(C)CC,le15,0,0,0,0,randonly selected as training point or test point
"2,3-dimethylhex-1-ene",279.85,1,C=C(C)C(C)CCC,le15,0,0,0,0,randonly selected as training point or test point
1-ethyl-1-methylcyclopentane,283.75,1,CCC1(C)CCCC1,le15,0,0,0,0,randonly selected as training point or test point
3-ethyl-2-methylpent-1-ene,279.85,1,C=C(C)C(CC)CC,le15,0,0,0,0,randonly selected as training point or test point
"(Z)-5,5-dimethylhex-2-ene",281.55,1,C/C=C\CC(C)(C)C,le15,0,0,0,0,randonly selected as training point or test point
"1,2-dimethylcyclohexane",288.75,1,CC1CCCCC1C,le15,0,0,0,0,randonly selected as training point or test point
1-ethyl-2-methylcyclopentane,286.65,1,CCC1CCCC1C,le15,0,0,0,0,randonly selected as training point or test point
"Cyclohexane, 1,2-dimethyl-, (1R,2S)-rel-",288.75,1,C[C@H]1CCCC[C@H]1C,le15,0,0,0,0,randonly selected as training point or test point
"1,4-dimethylcyclohexane",288.75,1,CC1CCC(C)CC1,le15,0,0,0,0,randonly selected as training point or test point
"1,2,3-trimethylcyclopentane",282.394,1,CC1CCC(C)C1C,le15,0,0,0,0,randonly selected as training point or test point
6-methylhept-1-ene,288.65,1,C=CCCCC(C)C,le15,0,0,0,0,randonly selected as training point or test point
trans-Oct-2-ene,294.25,1,C/C=C/CCCCC,le15,0,0,0,0,randonly selected as training point or test point
(E)-oct-3-ene,288.25,1,CC/C=C/CCCC,le15,0,0,0,0,randonly selected as training point or test point
"4,5-dimethylhex-1-ene",283.85,1,C=CCC(C)C(C)C,le15,0,0,0,0,randonly selected as training point or test point
1ethyl1methylcyclopentane,279.0,1,CCC1(C)CCCC1,le15,0,0,0,0,randonly selected as training point or test point
1octene,286.0,1,C=CCCCCCC,le15,0,0,0,0,randonly selected as training point or test point
2methyl1heptene,283.0,1,C=C(C)CCCCC,le15,0,0,0,0,randonly selected as training point or test point
2methyl2heptene,281.0,1,CCCCC=C(C)C,le15,0,0,0,0,randonly selected as training point or test point
Cyclooctane,301.0,1,C1CCCCCCC1,le15,0,0,0,0,randonly selected as training point or test point
2-chloro-2-fluoroacetic acid,331.75,1,O=C(O)C(F)Cl,le15,0,0,0,1,randonly selected as training point or test point
(Z)-2-chlorobut-2-enedinitrile,341.55,1,N#C/C=C(\Cl)C#N,le15,0,0,0,0,randonly selected as training point or test point
"Acetyl chloride, chloro-",307.15,1,O=C(Cl)CCl,le15,0,0,0,0,randonly selected as training point or test point
"s-Triazine-2,4(1H,3H)-dione (8CI)",574.05,1,O=c1nc[nH]c(=O)[nH]1,le15,0,0,0,0,randonly selected as training point or test point
4-Nitro-1H-imidazole (9CI),471.75,1,O=[N+]([O-])c1c[nH]cn1,le15,0,0,0,0,randonly selected as training point or test point
"2,5-Pyrrolidinedione, 1-methyl-",379.05,1,CN1C(=O)CCC1=O,le15,0,0,0,0,randonly selected as training point or test point
methyl 3-cyanopropanoate,360.65,1,COC(=O)CCC#N,le15,0,0,0,0,randonly selected as training point or test point
Hexahydro-2H-azepin-2-one (9CI),409.85,1,O=C1CCCCCN1,le15,0,0,0,0,randonly selected as training point or test point
"2-Propenamide, N-(1-methylethyl)-",392.85,1,C=CC(=O)NC(C)C,le15,0,0,0,0,randonly selected as training point or test point
"2-Pyrrolidinone, 1-ethyl-",349.25,1,CCN1CCCC1=O,le15,0,0,0,0,randonly selected as training point or test point
"Acetamide, N-ethyl-N-vinyl-",345.65,1,C=CN(CC)C(C)=O,le15,0,0,0,0,randonly selected as training point or test point
"2H-Pyran-2-methanamine, 3,4-dihydro- (9CI)",343.65,1,NCC1CCC=CO1,le15,0,0,0,0,randonly selected as training point or test point
"Cyclohexanone, oxime",363.15,1,ON=C1CCCCC1,le15,0,0,0,0,randonly selected as training point or test point
1-Piperidinecarboxaldehyde,364.15,1,O=CN1CCCCC1,le15,0,0,0,0,randonly selected as training point or test point
3-methylpiperidin-2-one,411.75,1,CC1CCCNC1=O,le15,0,0,0,0,randonly selected as training point or test point
"1,5-dimethylpyrrolidin-2-one",362.55,1,CC1CCC(=O)N1C,le15,0,0,0,0,randonly selected as training point or test point
"2,4-dimethyl-1,3-thiazole",315.15,1,Cc1csc(C)n1,le15,0,0,0,0,randonly selected as training point or test point
"Thiazole, 4,5-dimethyl-",324.25,1,Cc1ncsc1C,le15,0,0,0,0,randonly selected as training point or test point
"Piperidine, 2,6-dimethyl-",284.15,1,CC1CCCC(C)N1,le15,0,0,0,0,randonly selected as training point or test point
"2,6-dimethylpiperidine",284.85,1,CC1CCCC(C)N1,le15,0,0,0,0,randonly selected as training point or test point
"Azocine, octahydro-",302.55,1,C1CCCNCCC1,le15,0,0,0,0,randonly selected as training point or test point
"3,3-dimethylpiperidine",305.35,1,CC1(C)CCCNC1,le15,0,0,0,0,randonly selected as training point or test point
cyclohexylmethanamine,316.45,1,NCC1CCCCC1,le15,0,0,0,0,randonly selected as training point or test point
4-ethylpiperidine,306.95,1,CCC1CCNCC1,le15,0,0,0,0,randonly selected as training point or test point
"3,5-dimethylpiperidine",305.15,1,CC1CNCC(C)C1,le15,0,0,0,0,randonly selected as training point or test point
"Cyclohexanamine, N-methyl-",302.55,1,CNC1CCCCC1,le15,0,0,0,0,randonly selected as training point or test point
1ethylpiperidine,291.0,1,CCN1CCCCC1,le15,0,0,0,0,randonly selected as training point or test point
Cyclohexanemethylamine,316.0,1,NCC1CCCCC1,le15,0,0,0,0,randonly selected as training point or test point
"Pyridine, 2-chloro-",338.15,1,Clc1ccccn1,le15,0,0,0,0,randonly selected as training point or test point
"Pyridine, 3-chloro-",338.15,1,Clc1cccnc1,le15,0,0,0,0,randonly selected as training point or test point
"Acetic acid, 2,2,2-trifluoro-",270.15,1,O=C(O)C(F)(F)F,le15,0,0,0,1,randonly selected as training point or test point
"Cyclobutenedione, dihydroxy- (8CI)",392.99,1,O=c1c(O)c(O)c1=O,le15,0,0,0,0,randonly selected as training point or test point
"2-Propanol, 1,1,1-trifluoro-",311.95,1,CC(O)C(F)(F)F,le15,0,0,0,0,randonly selected as training point or test point
"3,3,3-trifluoropropan-1-ol",320.25,1,OCCC(F)(F)F,le15,0,0,0,0,randonly selected as training point or test point
"Benzene, 1,3-difluoro- (9CI)",275.15,1,Fc1cccc(F)c1,le15,0,0,0,0,randonly selected as training point or test point
"Benzene, 1,4-difluoro- (9CI)",275.25,1,Fc1ccc(F)cc1,le15,0,0,0,0,randonly selected as training point or test point
"1,2-difluorobenzene",275.35,1,Fc1ccccc1F,le15,0,0,0,0,randonly selected as training point or test point
"2H-Pyran-2,6(3H)-dione, dihydro-",394.05,1,O=C1CCCC(=O)O1,le15,0,0,0,0,randonly selected as training point or test point
"Fluorosulfuric acid, methyl ester",283.15,1,COS(=O)(=O)F,le15,0,0,0,1,randonly selected as training point or test point
"3-methyloxolane-2,5-dione",381.35,1,CC1CC(=O)OC1=O,le15,0,0,0,0,randonly selected as training point or test point
"Acetic acid, diazo-, ethyl ester",319.15,1,CCOC(=O)C=[N+]=[N-],le15,0,0,0,1,randonly selected as training point or test point
"2H-1,2-Oxazine, 3,6-dihydro-2-nitroso-",303.45,1,O=NN1CC=CCO1,le15,0,0,0,0,randonly selected as training point or test point
5-(Aminomethyl)isoxazol-3-ol hydrate,423.55,1,NCc1cc(O)no1.O,le15,0,0,0,0,randonly selected as training point or test point
"2-Propenoic acid, 2-methyl-, ethyl ester",288.75,1,C=C(C)C(=O)OCC,le15,0,0,0,1,randonly selected as training point or test point
"Propane, 1-(allyloxy)-2,3-epoxy- (8CI)",330.35,1,C=CCOCC1CO1,le15,0,0,0,0,randonly selected as training point or test point
"Butanoic acid, ethenyl ester (9CI)",299.55,1,C=COC(=O)CCC,le15,0,0,0,1,randonly selected as training point or test point
"2-Butenoic acid, ethyl ester, (E)- (9CI)",275.15,1,C/C=C/C(=O)OCC,le15,0,0,0,1,randonly selected as training point or test point
"2(3H)-Furanone, 5-ethyldihydro-",371.45,1,CCC1CCC(=O)O1,le15,0,0,0,0,randonly selected as training point or test point
methyl 3-methylbut-2-enoate,305.25,1,COC(=O)C=C(C)C,le15,0,0,0,0,randonly selected as training point or test point
propyl prop-2-enoate,299.25,1,C=CC(=O)OCCC,le15,0,0,0,0,randonly selected as training point or test point
(E)-hex-2-enoic acid,388.55,1,CCC/C=C/C(=O)O,le15,0,0,0,1,randonly selected as training point or test point
"Propionic acid, allyl ester (8CI)",306.65,1,C=CCOC(=O)CC,le15,0,0,0,1,randonly selected as training point or test point
"1,3-Dioxolane, 4-methyl-2-vinyl-",278.45,1,C=CC1OCC(C)O1,le15,0,0,0,0,randonly selected as training point or test point
"hexane-2,4-dione",326.75,1,CCC(=O)CC(C)=O,le15,0,0,0,0,randonly selected as training point or test point
cyclopentanecarboxylic acid,366.15,1,O=C(O)C1CCCC1,le15,0,0,0,1,randonly selected as training point or test point
"2,3-Hexanedione",301.15,1,CCCC(=O)C(C)=O,le15,0,0,0,0,randonly selected as training point or test point
(E)-hex-3-enoic acid,379.55,1,CC/C=C/CC(=O)O,le15,0,0,0,1,randonly selected as training point or test point
"3,4-Hexanedione",305.95,1,CCC(=O)C(=O)CC,le15,0,0,0,0,randonly selected as training point or test point
"2H-Pyran, 3,4-dihydro-2-methoxy-",289.85,1,COC1CCC=CO1,le15,0,0,0,0,randonly selected as training point or test point
"Ethanone, 1-(3,3-dimethyloxiranyl)- (9CI)",308.45,1,CC(=O)C1OC1(C)C,le15,0,0,0,0,randonly selected as training point or test point
ethyl cyclopropanecarboxylate,302.85,1,CCOC(=O)C1CC1,le15,0,0,0,0,randonly selected as training point or test point
"2,2-dimethylbut-3-enoic acid",357.45,1,C=CC(C)(C)C(=O)O,le15,0,0,0,1,randonly selected as training point or test point
"2-Butenoic acid, ethyl ester",301.45,1,CC=CC(=O)OCC,le15,0,0,0,1,randonly selected as training point or test point
"2-Hexenoic acid, (2E)-",388.55,1,CCC/C=C/C(=O)O,le15,0,0,0,1,randonly selected as training point or test point
(E)-2-methylpent-2-enoic acid,380.15,1,CC/C=C(\C)C(=O)O,le15,0,0,0,1,randonly selected as training point or test point
(E)-2-methylpent-3-enoic acid,370.55,1,C/C=C/C(C)C(=O)O,le15,0,0,0,1,randonly selected as training point or test point
hex-5-enoic acid,373.25,1,C=CCCCC(=O)O,le15,0,0,0,1,randonly selected as training point or test point
ethyl but-3-enoate,303.85,1,C=CCC(=O)OCC,le15,0,0,0,0,randonly selected as training point or test point
methyl (E)-2-methylbut-2-enoate,308.15,1,C/C=C(\C)C(=O)OC,le15,0,0,0,0,randonly selected as training point or test point
(E)-4-methylpent-2-enoic acid,379.15,1,CC(C)/C=C/C(=O)O,le15,0,0,0,1,randonly selected as training point or test point
"2-Imidazolidinone, 1,3-dimethyl-",349.65,1,CN1CCN(C)C1=O,le15,0,0,0,0,randonly selected as training point or test point
"Piperidine, 1-nitroso-",365.95,1,O=NN1CCCCC1,le15,0,0,0,0,randonly selected as training point or test point
furan-2-ylmethanethiol,318.15,1,SCc1ccco1,le15,0,0,0,0,randonly selected as training point or test point
thiophen-2-ylmethanol,349.85,1,OCc1cccs1,le15,0,0,0,0,randonly selected as training point or test point
"2H-Imidazole-2-thione, 1,3-dihydro-1-methyl-",320.55,1,Cn1cc[nH]c1=S,le15,0,0,0,0,randonly selected as training point or test point
"2,5-dimethyl-1,3,4-thiadiazole",354.35,1,Cc1nnc(C)s1,le15,0,0,0,0,randonly selected as training point or test point
cyclohexylmethanol,344.25,1,OCC1CCCCC1,le15,0,0,0,0,randonly selected as training point or test point
4-methylhexan-2-one,304.15,1,CCC(C)CC(C)=O,le15,0,0,0,0,randonly selected as training point or test point
"2-Hexanone, 5-methyl-",314.25,1,CC(=O)CCC(C)C,le15,0,0,0,0,randonly selected as training point or test point
"2,2-dimethylpentan-3-one",295.55,1,CCC(=O)C(C)(C)C,le15,0,0,0,0,randonly selected as training point or test point
"4,4-dimethylpentan-2-one",292.05,1,CC(=O)CC(C)(C)C,le15,0,0,0,0,randonly selected as training point or test point
2-cyclopentylethanol,343.55,1,OCCC1CCCC1,le15,0,0,0,0,randonly selected as training point or test point
2-methylhexanal,305.75,1,CCCCC(C)C=O,le15,0,0,0,0,randonly selected as training point or test point
methoxycyclohexane,293.85,1,COC1CCCCC1,le15,0,0,0,0,randonly selected as training point or test point
3-methylhexan-2-one,304.15,1,CCCC(C)C(C)=O,le15,0,0,0,0,randonly selected as training point or test point
"(1R,3S)-3-methylcyclohexan-1-ol",335.95,1,C[C@H]1CCC[C@@H](O)C1,le15,0,0,0,0,randonly selected as training point or test point
"3-Hexanone, 2-methyl-",297.05,1,CCCC(=O)C(C)C,le15,0,0,0,0,randonly selected as training point or test point
(1R)-3-methylcyclohexan-1-ol,335.95,1,CC1CCC[C@@H](O)C1,le15,0,0,0,0,randonly selected as training point or test point
"(1R,2S)-2-methylcyclohexan-1-ol",332.05,1,C[C@H]1CCCC[C@H]1O,le15,0,0,0,0,randonly selected as training point or test point
4-methylhexan-3-one,304.15,1,CCC(=O)C(C)CC,le15,0,0,0,0,randonly selected as training point or test point
3-methylhexanal,305.75,1,CCCC(C)CC=O,le15,0,0,0,0,randonly selected as training point or test point
"2-Hepten-1-ol, (E)- (8CI)(9CI)",341.65,1,CCCC/C=C/CO,le15,0,0,0,0,randonly selected as training point or test point
1-methylcyclohexan-1-ol,340.92800000000005,1,CC1(O)CCCCC1,le15,0,0,0,0,randonly selected as training point or test point
5-methylhexan-3-one,304.15,1,CCC(=O)CC(C)C,le15,0,0,0,0,randonly selected as training point or test point
hept-1-en-4-ol,329.55,1,C=CCC(O)CCC,le15,0,0,0,0,randonly selected as training point or test point
2methylcyclohexanol,331.0,1,CC1CCCCC1O,le15,0,0,0,0,randonly selected as training point or test point
3methylcyclohexanol,335.0,1,CC1CCCC(O)C1,le15,0,0,0,0,randonly selected as training point or test point
Cycloheptanol,344.0,1,OC1CCCCCC1,le15,0,0,0,0,randonly selected as training point or test point
Heptanal,314.0,1,CCCCCCC=O,le15,0,0,0,0,randonly selected as training point or test point
"Piperazine, 2,5-dimethyl-",331.45,1,CC1CNC(C)CN1,le15,0,0,0,0,randonly selected as training point or test point
piperidin-4-ylmethanamine,351.15,1,NCC1CCNCC1,le15,0,0,0,0,randonly selected as training point or test point
"1-Propene, 3,3'-thiobis-",319.25,1,C=CCSCC=C,le15,0,0,0,0,randonly selected as training point or test point
"3,3-dimethylhexane",282.45,1,CCCC(C)(C)CC,le15,0,0,0,0,randonly selected as training point or test point
"2,2,3-trimethylpentane",281.85,1,CCC(C)C(C)(C)C,le15,0,0,0,0,randonly selected as training point or test point
"3,4-dimethylhexane",304.75,1,CCC(C)C(C)CC,le15,0,0,0,0,randonly selected as training point or test point
4-methylheptane,279.85,1,CCCC(C)CCC,le15,0,0,0,0,randonly selected as training point or test point
"2,5-dimethylhexane",299.85,1,CC(C)CCC(C)C,le15,0,0,0,0,randonly selected as training point or test point
"2,2,3,3-tetramethylbutane",277.55,1,CC(C)(C)C(C)(C)C,le15,0,0,0,0,randonly selected as training point or test point
Octane,286.15,1,CCCCCCCC,le15,0,0,0,0,randonly selected as training point or test point
"2,3,3-trimethylpentane",284.55,1,CCC(C)(C)C(C)C,le15,0,0,0,0,randonly selected as training point or test point
"2,3,4-trimethylpentane",278.15,1,CC(C)C(C)C(C)C,le15,0,0,0,0,randonly selected as training point or test point
3-ethyl-3-methylpentane,286.25,1,CCC(C)(CC)CC,le15,0,0,0,0,randonly selected as training point or test point
2methylheptane,277.0,1,CCCCCC(C)C,le15,0,0,0,0,randonly selected as training point or test point
3ethylhexane,279.0,1,CCCC(CC)CC,le15,0,0,0,0,randonly selected as training point or test point
3methylheptane,280.0,1,CCCCC(C)CC,le15,0,0,0,0,randonly selected as training point or test point
Isooctane,261.0,1,CC(C)CC(C)(C)C,le15,0,0,0,0,randonly selected as training point or test point
trimethyl(prop-2-enyl)silane,280.35,1,C=CC[Si](C)(C)C,le15,1,1,0,0,randonly selected as training point or test point
2-chloropyrazine,330.15,1,Clc1cnccn1,le15,0,0,0,0,randonly selected as training point or test point