compound,flashpoint,pure substance,smiles,source,is_silicon,is_metallic,is_tin,is_acid,data type
cis-2-methylcyclohexanol,332.0,1,C[C@@H]1[C@@H](CCCC1)O,carroll11,0,0,0,0,randonly selected as training point or test point
trans-2-methylcyclohexanol,332.0,1,C[C@H]1[C@@H](CCCC1)O,carroll11,0,0,0,0,randonly selected as training point or test point
trans-4-methylcyclohexanol,343.0,1,C[C@@H]1CC[C@H](CC1)O,carroll11,0,0,0,0,randonly selected as training point or test point
2-ethyl-1-hexanol,347.0,1,C(C)C(CO)CCCC,carroll11,0,0,0,0,randonly selected as training point or test point
cycloheptanol,344.0,1,C1(CCCCCC1)O,carroll11,0,0,0,0,randonly selected as training point or test point
"3,5,5-trimethyl-1-hexanol",353.0,1,CC(CCO)CC(C)(C)C,carroll11,0,0,0,0,randonly selected as training point or test point
"2,3-butanediol",358.0,1,CC(C(C)O)O,carroll11,0,0,0,0,randonly selected as training point or test point
"1,2-propanediol",372.0,1,C(C(C)O)O,carroll11,0,0,0,0,randonly selected as training point or test point
"1,2-butanediol",366.0,1,C(C(CC)O)O,carroll11,0,0,0,0,randonly selected as training point or test point
"1,2-ethanediol",381.0,1,C(CO)O,carroll11,0,0,0,0,randonly selected as training point or test point
"1,2-pentanediol",378.0,1,C(C(CCC)O)O,carroll11,0,0,0,0,randonly selected as training point or test point
"1,3-butanediol",382.0,1,C(CC(C)O)O,carroll11,0,0,0,0,randonly selected as training point or test point
"1,2-hexanediol",395.0,1,C(C(CCCC)O)O,carroll11,0,0,0,0,randonly selected as training point or test point
"1,4-butanediol",394.0,1,C(CCCO)O,carroll11,0,0,0,0,randonly selected as training point or test point
"1,5-pentanediol",402.0,1,C(CCCCO)O,carroll11,0,0,0,0,randonly selected as training point or test point
cyclooctanol,361.0,1,C1(CCCCCCC1)O,carroll11,0,0,0,0,randonly selected as training point or test point
aceticacid,313.0,1,C(C)(=O)O,carroll11,0,0,0,1,randonly selected as training point or test point
propionicacid,331.0,1,C(CC)(=O)O,carroll11,0,0,0,1,randonly selected as training point or test point
butanoicacid,342.0,1,C(CCC)(=O)O,carroll11,0,0,0,1,randonly selected as training point or test point
pentanoicacid,358.0,1,C(CCCC)(=O)O,carroll11,0,0,0,1,randonly selected as training point or test point
hexanoicacid,375.0,1,C(CCCCC)(=O)O,carroll11,0,0,0,1,randonly selected as training point or test point
heptanoicacid,382.0,1,C(CCCCCC)(=O)O,carroll11,0,0,0,1,randonly selected as training point or test point
2-methylpropanoicacid,332.0,1,CC(C(=O)O)C,carroll11,0,0,0,1,randonly selected as training point or test point
3-methylbutanoicacid,347.0,1,CC(CC(=O)O)C,carroll11,0,0,0,1,randonly selected as training point or test point
2-methylbutanoicacid,350.0,1,CC(C(=O)O)CC,carroll11,0,0,0,1,randonly selected as training point or test point
2-ethylbutanoicacid,360.0,1,C(C)C(C(=O)O)CC,carroll11,0,0,0,1,randonly selected as training point or test point
"3,3-dimethylbutanoicacid",361.0,1,CC(CC(=O)O)(C)C,carroll11,0,0,0,1,randonly selected as training point or test point
4-methylpentanoicacid,370.0,1,CC(CCC(=O)O)C,carroll11,0,0,0,1,randonly selected as training point or test point
2-methylpentanoicacid,364.0,1,CC(C(=O)O)CCC,carroll11,0,0,0,1,randonly selected as training point or test point
2-methylhexanoicacid,378.0,1,CC(C(=O)O)CCCC,carroll11,0,0,0,1,randonly selected as training point or test point
3-methylhexanoicacid,376.0,1,CC(CC(=O)O)CCC,carroll11,0,0,0,1,randonly selected as training point or test point
4-methylhexanoicacid,376.0,1,CC(CCC(=O)O)CC,carroll11,0,0,0,1,randonly selected as training point or test point
aceticanhydride,322.0,1,C(C)(=O)OC(C)=O,carroll11,0,0,0,0,randonly selected as training point or test point
butanoicanhydride,355.0,1,C(CCC)(=O)OC(CCC)=O,carroll11,0,0,0,0,randonly selected as training point or test point
pentanoicanhydride,374.0,1,C(CCCC)(=O)OC(CCCC)=O,carroll11,0,0,0,0,randonly selected as training point or test point
hexanoicanhydride,386.0,1,C(CCCCC)(=O)OC(CCCCC)=O,carroll11,0,0,0,0,randonly selected as training point or test point
heptanoicanhydride,403.0,1,C(CCCCCC)(=O)OC(CCCCCC)=O,carroll11,0,0,0,0,randonly selected as training point or test point
isobutanoicanhydride,340.0,1,C(C(C)C)(=O)OC(C(C)C)=O,carroll11,0,0,0,0,randonly selected as training point or test point
pivalicanhydride,336.0,1,C(C(C)(C)C)(=O)OC(C(C)(C)C)=O,carroll11,0,0,0,0,randonly selected as training point or test point
3-methylbutanoicanhydride,364.0,1,CC(CC(=O)OC(CC(C)C)=O)C,carroll11,0,0,0,0,randonly selected as training point or test point
isopropylamine,241.0,1,C(C)(C)N,carroll11,0,0,0,0,randonly selected as training point or test point
tert-butylamine,235.0,1,C(C)(C)(C)N,carroll11,0,0,0,0,randonly selected as training point or test point
propylamine,243.0,1,C(CC)N,carroll11,0,0,0,0,randonly selected as training point or test point
cyclopropylamine,248.0,1,C1(CC1)N,carroll11,0,0,0,0,randonly selected as training point or test point
N-methylisopropylamine,253.0,1,CNC(C)C,carroll11,0,0,0,0,randonly selected as training point or test point
diethylamine,250.0,1,C(C)NCC,carroll11,0,0,0,0,randonly selected as training point or test point
sec-butylamine,254.0,1,C(C)(CC)N,carroll11,0,0,0,0,randonly selected as training point or test point
allylmethylamine,265.0,1,C(C=C)CN,carroll11,0,0,0,0,randonly selected as training point or test point
isobutylamine,263.0,1,C(C(C)C)N,carroll11,0,0,0,0,randonly selected as training point or test point
butylamine,266.0,1,C(CCC)N,carroll11,0,0,0,0,randonly selected as training point or test point
cyclobutylamine,269.0,1,C1(CCC1)N,carroll11,0,0,0,0,randonly selected as training point or test point
diisopropylamine,266.0,1,C(C)(C)NC(C)C,carroll11,0,0,0,0,randonly selected as training point or test point
3-pentanamine,275.0,1,CCC(CC)N,carroll11,0,0,0,0,randonly selected as training point or test point
N-methylbutylamine,275.0,1,CNCCCC,carroll11,0,0,0,0,randonly selected as training point or test point
pentylamine,277.0,1,C(CCCC)N,carroll11,0,0,0,0,randonly selected as training point or test point
cyclopentylamine,285.0,1,C1(CCCC1)N,carroll11,0,0,0,0,randonly selected as training point or test point
dipropylamine,280.0,1,C(CC)NCCC,carroll11,0,0,0,0,randonly selected as training point or test point
hexylamine,300.0,1,C(CCCCC)N,carroll11,0,0,0,0,randonly selected as training point or test point
diisobutylamine,303.0,1,C(C(C)C)NCC(C)C,carroll11,0,0,0,0,randonly selected as training point or test point
heptylamine,317.0,1,C(CCCCCC)N,carroll11,0,0,0,0,randonly selected as training point or test point
dibutylamine,320.0,1,C(CCC)NCCCC,carroll11,0,0,0,0,randonly selected as training point or test point
2-ethyl-1-hexanamine,323.0,1,C(C)C(CN)CCCC,carroll11,0,0,0,0,randonly selected as training point or test point
octylamine,333.0,1,C(CCCCCCC)N,carroll11,0,0,0,0,randonly selected as training point or test point
nonylamine,347.0,1,C(CCCCCCCC)N,carroll11,0,0,0,0,randonly selected as training point or test point
1-decanamine,358.0,1,C(CCCCCCCCC)N,carroll11,0,0,0,0,randonly selected as training point or test point
N-ethylcyclohexanamine,318.0,1,C(C)NC1CCCCC1,carroll11,0,0,0,0,randonly selected as training point or test point
di-sec-butylamine,297.0,1,C(C)(CC)NC(C)CC,carroll11,0,0,0,0,randonly selected as training point or test point
(aminomethyl)cyclohexane,316.0,1,NCC1CCCCC1,carroll11,0,0,0,0,randonly selected as training point or test point
N-ethyl-N-methylethanamine,250.0,1,C(C)N(CC)C,carroll11,0,0,0,0,randonly selected as training point or test point
triethylamine,264.0,1,C(C)N(CC)CC,carroll11,0,0,0,0,randonly selected as training point or test point
tripropylamine,308.0,1,C(CC)N(CCC)CCC,carroll11,0,0,0,0,randonly selected as training point or test point
tributylamine,344.0,1,C(CCC)N(CCCC)CCCC,carroll11,0,0,0,0,randonly selected as training point or test point
N-ethyldimethylamine,237.0,1,C(C)N(C)C,carroll11,0,0,0,0,randonly selected as training point or test point
1-ethylpiperidine,291.0,1,C(C)N1CCCCC1,carroll11,0,0,0,0,randonly selected as training point or test point
diethylenetriamine,363.0,1,NCCNCCN,carroll11,0,0,0,0,randonly selected as training point or test point
"N,N-dimethylcyclohexylamine",314.0,1,CN(C)C1CCCCC1,carroll11,0,0,0,0,randonly selected as training point or test point
"1,2-ethanediamine",307.0,1,C(CN)N,carroll11,0,0,0,0,randonly selected as training point or test point
"1,3-propanediamine",321.0,1,C(CCN)N,carroll11,0,0,0,0,randonly selected as training point or test point
"N,N-dimethyl-1,3-propanediamine",305.0,1,CN(CCCN)C,carroll11,0,0,0,0,randonly selected as training point or test point
"N,N-dimethylformamide",330.0,1,CN(C=O)C,carroll11,0,0,0,0,randonly selected as training point or test point
"N,N-dimethylacetamide",339.0,1,CN(C(C)=O)C,carroll11,0,0,0,0,randonly selected as training point or test point
"N,N-diethylformamide",338.0,1,C(C)N(C=O)CC,carroll11,0,0,0,0,randonly selected as training point or test point
"N,N-diethylacetamide",349.0,1,C(C)N(C(C)=O)CC,carroll11,0,0,0,0,randonly selected as training point or test point
N-ethylformamide,359.0,1,C(C)NC=O,carroll11,0,0,0,0,randonly selected as training point or test point
N-methylformamide,371.0,1,CNC=O,carroll11,0,0,0,0,randonly selected as training point or test point
N-ethylacetamide,379.0,1,C(C)NC(C)=O,carroll11,0,0,0,0,randonly selected as training point or test point
N-butylacetamide,388.0,1,C(CCC)NC(C)=O,carroll11,0,0,0,0,randonly selected as training point or test point
"N,N-diisopropylformamide",348.0,1,C(C)(C)N(C=O)C(C)C,carroll11,0,0,0,0,randonly selected as training point or test point
acetonitrile,275.0,1,C(C)#N,carroll11,0,0,0,0,randonly selected as training point or test point
propionitrile,279.0,1,C(CC)#N,carroll11,0,0,0,0,randonly selected as training point or test point
butyronitrile,291.0,1,C(CCC)#N,carroll11,0,0,0,0,randonly selected as training point or test point
pentanenitrile,305.0,1,C(CCCC)#N,carroll11,0,0,0,0,randonly selected as training point or test point
hexanenitrile,320.0,1,C(CCCCC)#N,carroll11,0,0,0,0,randonly selected as training point or test point
heptanenitrile,331.0,1,C(CCCCCC)#N,carroll11,0,0,0,0,randonly selected as training point or test point
octanenitrile,347.0,1,C(CCCCCCC)#N,carroll11,0,0,0,0,randonly selected as training point or test point
nonanenitrile,355.0,1,C(CCCCCCCC)#N,carroll11,0,0,0,0,randonly selected as training point or test point
decanenitrile,365.0,1,C(CCCCCCCCC)#N,carroll11,0,0,0,0,randonly selected as training point or test point
"2,2-dimethylpropanenitrile",277.0,1,CC(C#N)(C)C,carroll11,0,0,0,0,randonly selected as training point or test point
isobutyronitrile,281.0,1,C(C(C)C)#N,carroll11,0,0,0,0,randonly selected as training point or test point
cyclopropanecarbonitrile,305.0,1,C1(CC1)C#N,carroll11,0,0,0,0,randonly selected as training point or test point
3-methylbutanenitrile,301.0,1,CC(CC#N)C,carroll11,0,0,0,0,randonly selected as training point or test point
"1,4-dicyanobutane",432.0,1,C(#N)CCCCC#N,carroll11,0,0,0,0,randonly selected as training point or test point
1-propanethiol,259.0,1,C(CC)S,carroll11,0,0,0,0,randonly selected as training point or test point
1-butanethiol,275.0,1,C(CCC)S,carroll11,0,0,0,0,randonly selected as training point or test point
1-pentanethiol,291.0,1,C(CCCC)S,carroll11,0,0,0,0,randonly selected as training point or test point
1-hexanethiol,303.0,1,C(CCCCC)S,carroll11,0,0,0,0,randonly selected as training point or test point
1-heptanethiol,319.0,1,C(CCCCCC)S,carroll11,0,0,0,0,randonly selected as training point or test point
1-octanethiol,341.0,1,C(CCCCCCC)S,carroll11,0,0,0,0,randonly selected as training point or test point
1-nonanethiol,352.0,1,C(CCCCCCCC)S,carroll11,0,0,0,0,randonly selected as training point or test point
1-decanethiol,372.0,1,C(CCCCCCCCC)S,carroll11,0,0,0,0,randonly selected as training point or test point
1-undecanethiol,382.0,1,C(CCCCCCCCCC)S,carroll11,0,0,0,0,randonly selected as training point or test point
2-butanethiol,250.0,1,CC(CC)S,carroll11,0,0,0,0,randonly selected as training point or test point
2-pentanethiol,288.0,1,CC(CCC)S,carroll11,0,0,0,0,randonly selected as training point or test point
2-methyl-2-propanethiol,249.0,1,CC(C)(C)S,carroll11,0,0,0,0,randonly selected as training point or test point
2-methyl-1-butanethiol,292.0,1,CC(CS)CC,carroll11,0,0,0,0,randonly selected as training point or test point
3-methyl-2-butanethiol,282.0,1,CC(C(C)S)C,carroll11,0,0,0,0,randonly selected as training point or test point
cyclopentanethiol,298.0,1,C1(CCCC1)S,carroll11,0,0,0,0,randonly selected as training point or test point
cyclohexanethiol,314.0,1,C1(CCCCC1)S,carroll11,0,0,0,0,randonly selected as training point or test point
3-ethyl-3-pentanethiol,307.0,1,C(C)C(CC)(CC)S,carroll11,0,0,0,0,randonly selected as training point or test point
2-methyl-2-pentanethiol,293.0,1,CC(C)(CCC)S,carroll11,0,0,0,0,randonly selected as training point or test point
3-hexanethiol,303.0,1,CCC(CCC)S,carroll11,0,0,0,0,randonly selected as training point or test point
dimethylsulfide,237.0,1,CSC,carroll11,0,0,0,0,randonly selected as training point or test point
diethylsulfide,263.0,1,C(C)SCC,carroll11,0,0,0,0,randonly selected as training point or test point
dipropylsulfide,301.0,1,C(CC)SCCC,carroll11,0,0,0,0,randonly selected as training point or test point
dibutylsulfide,333.0,1,C(CCC)SCCCC,carroll11,0,0,0,0,randonly selected as training point or test point
ethylmethylsulfide,255.0,1,C(C)SC,carroll11,0,0,0,0,randonly selected as training point or test point
tert-butylmethylsulfide,270.0,1,C(C)(C)(C)SC,carroll11,0,0,0,0,randonly selected as training point or test point
thiacyclopentane,286.0,1,S1CCCC1,carroll11,0,0,0,0,randonly selected as training point or test point
thiacyclohexane,294.0,1,S1CCCCC1,carroll11,0,0,0,0,randonly selected as training point or test point
di-tert-butylsulfide,300.0,1,C(C)(C)(C)SC(C)(C)C,carroll11,0,0,0,0,randonly selected as training point or test point
di-sec-butylsulfide,312.0,1,C(C)(CC)SC(C)CC,carroll11,0,0,0,0,randonly selected as training point or test point
diisopentylsulfide,350.0,1,C(CC(C)C)SCCC(C)C,carroll11,0,0,0,0,randonly selected as training point or test point
diallylsulfide,296.0,1,C(C=C)SCC=C,carroll11,0,0,0,0,randonly selected as training point or test point
allylethylsulfide,289.0,1,C(C=C)SCC,carroll11,0,0,0,0,randonly selected as training point or test point
allylpropylsulfide,302.0,1,C(C=C)SCCC,carroll11,0,0,0,0,randonly selected as training point or test point
1-chlorohexane,299.0,1,ClCCCCCC,carroll11,0,0,0,0,randonly selected as training point or test point
1-chloroheptane,314.0,1,ClCCCCCCC,carroll11,0,0,0,0,randonly selected as training point or test point
1-chlorooctane,331.0,1,ClCCCCCCCC,carroll11,0,0,0,0,randonly selected as training point or test point
1-chlorononane,347.0,1,ClCCCCCCCCC,carroll11,0,0,0,0,randonly selected as training point or test point
1-chlorodecane,356.0,1,ClCCCCCCCCCC,carroll11,0,0,0,0,randonly selected as training point or test point
2-chloropropane,241.0,1,ClC(C)C,carroll11,0,0,0,0,randonly selected as training point or test point
2-chlorobutane,258.0,1,ClC(C)CC,carroll11,0,0,0,0,randonly selected as training point or test point
2-chloropentane,274.0,1,ClC(C)CCC,carroll11,0,0,0,0,randonly selected as training point or test point
3-chloropropene,245.0,1,ClCC=C,carroll11,0,0,0,0,randonly selected as training point or test point
2-chloro-2-methylpropane,250.0,1,ClC(C)(C)C,carroll11,0,0,0,0,randonly selected as training point or test point
1-chloro-2-methylpropane,256.0,1,ClCC(C)C,carroll11,0,0,0,0,randonly selected as training point or test point
chlorocyclopentane,288.0,1,ClC1CCCC1,carroll11,0,0,0,0,randonly selected as training point or test point
chlorocyclohexane,301.0,1,ClC1CCCCC1,carroll11,0,0,0,0,randonly selected as training point or test point
"1,1-dichloropropane",280.0,1,ClC(CC)Cl,carroll11,0,0,0,0,randonly selected as training point or test point
"1,1-dichloroethane",263.0,1,ClC(C)Cl,carroll11,0,0,0,0,randonly selected as training point or test point
"1,2-dichloroethane",286.0,1,ClCCCl,carroll11,0,0,0,0,randonly selected as training point or test point
"1,2-dichloropropane",286.0,1,ClCC(C)Cl,carroll11,0,0,0,0,randonly selected as training point or test point
"1,3-dichloropropane",294.0,1,ClCCCCl,carroll11,0,0,0,0,randonly selected as training point or test point
bromoethane,253.0,1,BrCC,carroll11,0,0,0,0,randonly selected as training point or test point
1-bromopropane,269.0,1,BrCCC,carroll11,0,0,0,0,randonly selected as training point or test point
1-bromobutane,283.0,1,BrCCCC,carroll11,0,0,0,0,randonly selected as training point or test point
1-bromopentane,303.0,1,BrCCCCC,carroll11,0,0,0,0,randonly selected as training point or test point
1-bromohexane,320.0,1,BrCCCCCC,carroll11,0,0,0,0,randonly selected as training point or test point
1-bromoheptane,334.0,1,BrCCCCCCC,carroll11,0,0,0,0,randonly selected as training point or test point
1-bromooctane,351.0,1,BrCCCCCCCC,carroll11,0,0,0,0,randonly selected as training point or test point
2-bromopentane,294.0,1,BrC(C)CCC,carroll11,0,0,0,0,randonly selected as training point or test point
2-bromohexane,313.0,1,BrC(C)CCCC,carroll11,0,0,0,0,randonly selected as training point or test point
3-bromopentane,292.0,1,BrC(CC)CC,carroll11,0,0,0,0,randonly selected as training point or test point
bromocyclopentane,308.0,1,BrC1CCCC1,carroll11,0,0,0,0,randonly selected as training point or test point
3-bromohexane,313.0,1,BrC(CC)CCC,carroll11,0,0,0,0,randonly selected as training point or test point
bromocyclohexane,335.0,1,BrC1CCCCC1,carroll11,0,0,0,0,randonly selected as training point or test point
iodoethane,268.0,1,ICC,carroll11,0,0,0,0,randonly selected as training point or test point
2-iodobutane,297.0,1,IC(C)CC,carroll11,0,0,0,0,randonly selected as training point or test point
1-iodobutane,306.0,1,ICCCC,carroll11,0,0,0,0,randonly selected as training point or test point
2-iodopentane,318.0,1,IC(C)CCC,carroll11,0,0,0,0,randonly selected as training point or test point
iodocyclopentane,325.0,1,IC1CCCC1,carroll11,0,0,0,0,randonly selected as training point or test point
3-iodohexane,328.0,1,IC(CC)CCC,carroll11,0,0,0,0,randonly selected as training point or test point
1-iodohexane,334.0,1,ICCCCCC,carroll11,0,0,0,0,randonly selected as training point or test point
1-iodoheptane,352.0,1,ICCCCCCC,carroll11,0,0,0,0,randonly selected as training point or test point
1-iodooctane,368.0,1,ICCCCCCCC,carroll11,0,0,0,0,randonly selected as training point or test point
dimethyldisulfide,283.0,1,CSSC,carroll11,0,0,0,0,randonly selected as training point or test point
diethyldisulfide,312.0,1,C(C)SSCC,carroll11,0,0,0,0,randonly selected as training point or test point
dipropyldisulfide,339.0,1,C(CC)SSCCC,carroll11,0,0,0,0,randonly selected as training point or test point
di-tert-butyldisulfide,340.0,1,C(C)(C)(C)SSC(C)(C)C,carroll11,0,0,0,0,randonly selected as training point or test point
dibutyldisulfide,366.0,1,C(CCC)SSCCCC,carroll11,0,0,0,0,randonly selected as training point or test point
ethylpropyldisulfide,330.0,1,C(C)SSCCC,carroll11,0,0,0,0,randonly selected as training point or test point
nitrocyclohexane,354.0,1,[N+](=O)([O-])C1CCCCC1,carroll11,0,0,0,0,randonly selected as training point or test point
nitrocyclopentane,340.0,1,[N+](=O)([O-])C1CCCC1,carroll11,0,0,0,0,randonly selected as training point or test point
nitroethane,301.0,1,[N+](=O)([O-])CC,carroll11,0,0,0,0,randonly selected as training point or test point
2-nitropropane,301.0,1,[N+](=O)([O-])C(C)C,carroll11,0,0,0,0,randonly selected as training point or test point
1-nitropropane,307.0,1,[N+](=O)([O-])CCC,carroll11,0,0,0,0,randonly selected as training point or test point
1-nitrobutane,320.0,1,[N+](=O)([O-])CCCC,carroll11,0,0,0,0,randonly selected as training point or test point
1-nitropentane,334.0,1,[N+](=O)([O-])CCCCC,carroll11,0,0,0,0,randonly selected as training point or test point