compound,flashpoint,pure substance,smiles,source,is_silicon,is_metallic,is_tin,is_acid,data type
"Propylamine, 1,2-dimethyl-",245.35,1,CC(C)C(C)N,le15,0,0,0,0,randonly selected as training point or test point
"Propylamine, 1-ethyl- (8CI)",275.35,1,CCC(N)CC,le15,0,0,0,0,randonly selected as training point or test point
"Ethanamine, N-ethyl-N-methyl-",275.35,1,CCN(C)CC,le15,0,0,0,0,randonly selected as training point or test point
"N,N-dimethylpropan-2-amine",264.15,1,CC(C)N(C)C,le15,0,0,0,0,randonly selected as training point or test point
"1-Butanamine, 3-methyl-",291.45,1,CC(C)CCN,le15,0,0,0,0,randonly selected as training point or test point
1-Pentanamine,277.55,1,CCCCCN,le15,0,0,0,0,randonly selected as training point or test point
N-ethylpropan-2-amine,289.25,1,CCNC(C)C,le15,0,0,0,0,randonly selected as training point or test point
"2-Propenenitrile, 2-chloro-",279.85,1,C=C(Cl)C#N,le15,0,0,0,0,randonly selected as training point or test point
2-oxopropanoic acid,327.45,1,CC(=O)C(=O)O,le15,0,0,0,1,randonly selected as training point or test point
Ethanediamide,385.85,1,NC(=O)C(N)=O,le15,0,0,0,0,randonly selected as training point or test point
"Ethanedial, dioxime",329.35,1,ON=CC=NO,le15,0,0,0,0,randonly selected as training point or test point
"Hydrazine, 1,2-diformyl- (8CI)",354.75,1,O=CNNC=O,le15,0,0,0,0,randonly selected as training point or test point
"Propanoic acid, 2-methyl-",331.35,1,CC(C)C(=O)O,le15,0,0,0,1,randonly selected as training point or test point
"Butyraldehyde, 3-hydroxy-",331.85,1,CC(O)CC=O,le15,0,0,0,0,randonly selected as training point or test point
Butanoic acid,342.15,1,CCCC(=O)O,le15,0,0,0,1,randonly selected as training point or test point
Acetic acid ethyl ester,269.15,1,CCOC(C)=O,le15,0,0,0,1,randonly selected as training point or test point
oxolan-3-ol,354.25,1,OC1CCOC1,le15,0,0,0,0,randonly selected as training point or test point
"but-3-ene-1,2-diol",362.45,1,C=CC(O)CO,le15,0,0,0,0,randonly selected as training point or test point
"1,3-Dioxolane, 2-methyl-",271.15,1,CC1OCCO1,le15,0,0,0,0,randonly selected as training point or test point
"2-Butanone, 3-hydroxy-",322.85,1,CC(=O)C(C)O,le15,0,0,0,0,randonly selected as training point or test point
"Ethanol, 2-(ethenyloxy)- (9CI)",323.15,1,C=COCCO,le15,0,0,0,0,randonly selected as training point or test point
"Propane, 1,2-epoxy-3-methoxy-",281.25,1,COCC1CO1,le15,0,0,0,0,randonly selected as training point or test point
1-hydroxybutan-2-one,333.15,1,CCC(=O)CO,le15,0,0,0,0,randonly selected as training point or test point
"(Z)-2-Butene-1,4-diol",401.15,1,OC/C=C\CO,le15,0,0,0,0,randonly selected as training point or test point
"1,4-Dioxane",285.35,1,C1COCCO1,le15,0,0,0,0,randonly selected as training point or test point
"Propanoic acid, methyl ester",271.15,1,CCC(=O)OC,le15,0,0,0,1,randonly selected as training point or test point
2methylpropanoicacid,329.0,1,CC(C)C(=O)O,le15,0,0,0,1,randonly selected as training point or test point
"Urea, N,N'-dimethyl-",397.45,1,CNC(=O)NC,le15,0,0,0,0,randonly selected as training point or test point
"Ethylamine, N-methyl-N-nitroso-",320.35,1,CCN(C)N=O,le15,0,0,0,0,randonly selected as training point or test point
Pentyl alcohol,322.05,1,CCCCCO,le15,0,0,0,0,randonly selected as training point or test point
"1-Propanol, 2,2-dimethyl-",310.15,1,CC(C)(C)CO,le15,0,0,0,0,randonly selected as training point or test point
Isopentyl alcohol (8CI),318.75,1,CC(C)CCO,le15,0,0,0,0,randonly selected as training point or test point
3-Pentanol,313.15,1,CCC(O)CC,le15,0,0,0,0,randonly selected as training point or test point
"Propane, 2-methoxy-2-methyl-",245.15,1,COC(C)(C)C,le15,0,0,0,0,randonly selected as training point or test point
2-Pentanol,307.15,1,CCCC(C)O,le15,0,0,0,0,randonly selected as training point or test point
2-methoxybutane,243.15,1,CCC(C)OC,le15,0,0,0,0,randonly selected as training point or test point
"2-Butanol, 2-methyl-",294.25,1,CCC(C)(C)O,le15,0,0,0,0,randonly selected as training point or test point
1methoxybutane,263.0,1,CCCCOC,le15,0,0,0,0,randonly selected as training point or test point
2methoxybutane,243.0,1,CCC(C)OC,le15,0,0,0,0,randonly selected as training point or test point
2methyl1butanol,316.0,1,CCC(C)CO,le15,0,0,0,0,randonly selected as training point or test point
2methyl2butanol,294.0,1,CCC(C)(C)O,le15,0,0,0,0,randonly selected as training point or test point
2pentanol,313.0,1,CCCC(C)O,le15,0,0,0,0,randonly selected as training point or test point
3methyl1butanol,316.0,1,CC(C)CCO,le15,0,0,0,0,randonly selected as training point or test point
3methyl2butanol,312.0,1,CC(C)C(C)O,le15,0,0,0,0,randonly selected as training point or test point
3pentanol,313.0,1,CCC(O)CC,le15,0,0,0,0,randonly selected as training point or test point
EthylPropylEther,253.0,1,CCCOCC,le15,0,0,0,0,randonly selected as training point or test point
"Ethylenediamine, N,N-dimethyl- (8CI)",297.05,1,CN(C)CCN,le15,0,0,0,0,randonly selected as training point or test point
"1,2-Ethanediamine, N1-ethyl-",283.15,1,CCNCCN,le15,0,0,0,0,randonly selected as training point or test point
1-Methyltrimethylenediamine,309.65,1,CC(N)CCN,le15,0,0,0,0,randonly selected as training point or test point
"Hydrazine, 1,1-diethyl-",295.95,1,CCN(N)CC,le15,0,0,0,0,randonly selected as training point or test point
Tetramethylenediamine,324.85,1,NCCCCN,le15,0,0,0,0,randonly selected as training point or test point
"1,3-Propanediamine, N-methyl-",313.15,1,CNCCCN,le15,0,0,0,0,randonly selected as training point or test point
3-methylsulfanylprop-1-ene,291.45,1,C=CCSC,le15,0,0,0,0,randonly selected as training point or test point
"Thiophene, tetrahydro-",285.95,1,C1CCSC1,le15,0,0,0,0,randonly selected as training point or test point
Thiacyclopentane,285.0,1,C1CCSC1,le15,0,0,0,0,randonly selected as training point or test point
diethylsilicon,244.25,1,CC[Si]CC,le15,1,1,0,0,randonly selected as training point or test point
"4-chlorobuta-1,2-diene",273.65,1,C=C=CCCl,le15,0,0,0,0,randonly selected as training point or test point
"Carbamic acid, ethyl ester",370.35,1,CCOC(N)=O,le15,0,0,0,1,randonly selected as training point or test point
2-aminobutan-1-ol,355.35,1,CCC(N)CO,le15,0,0,0,0,randonly selected as training point or test point
"Ethanol, 2-(dimethylamino)-",313.75,1,CN(C)CCO,le15,0,0,0,0,randonly selected as training point or test point
"1-Propanol, 2-amino-2-methyl-",340.35,1,CC(C)(N)CO,le15,0,0,0,0,randonly selected as training point or test point
"N,N-diethylhydroxylamine",318.15,1,CCN(O)CC,le15,0,0,0,0,randonly selected as training point or test point
"1-Propanamine, 3-methoxy-",295.95,1,COCCCN,le15,0,0,0,0,randonly selected as training point or test point
"1-Butanol, 4-amino-",380.95,1,NCCCCO,le15,0,0,0,0,randonly selected as training point or test point
1-aminobutan-2-ol,334.15,1,CCC(O)CN,le15,0,0,0,0,randonly selected as training point or test point
"Ethanol, 2-(ethylamino)-",351.15,1,CCNCCO,le15,0,0,0,0,randonly selected as training point or test point
2-ethoxyethanamine,290.85,1,CCOCCN,le15,0,0,0,0,randonly selected as training point or test point
2dimethylaminoethanol,313.0,1,CN(C)CCO,le15,0,0,0,0,randonly selected as training point or test point
Thiazolidine,329.25,1,C1CSCN1,le15,0,0,0,0,randonly selected as training point or test point
"Propanenitrile, 3-chloro-",348.75,1,N#CCCCl,le15,0,0,0,0,randonly selected as training point or test point
2-Chloropropionitrile,306.45,1,CC(Cl)C#N,le15,0,0,0,0,randonly selected as training point or test point
"Propanoic acid, 2-hydroxy-",383.086,1,CC(O)C(=O)O,le15,0,0,0,1,randonly selected as training point or test point
"2-Propanone, 1,3-dihydroxy-",370.45,1,O=C(CO)CO,le15,0,0,0,0,randonly selected as training point or test point
"Carbonic acid, dimethyl ester",291.15,1,COC(=O)OC,le15,0,0,0,1,randonly selected as training point or test point
"Acetic acid, 2-methoxy-",394.15,1,COCC(=O)O,le15,0,0,0,1,randonly selected as training point or test point
"Propanoic acid, 2-hydroxy-, (S)- (9CI)",383.05,1,C[C@H](O)C(=O)O,le15,0,0,0,1,randonly selected as training point or test point
methyl 2-hydroxyacetate,340.35,1,COC(=O)CO,le15,0,0,0,0,randonly selected as training point or test point
Dimethylcarbonate,291.0,1,COC(=O)OC,le15,0,0,0,0,randonly selected as training point or test point
"Carbazic acid, methyl ester (8CI)",359.25,1,COC(=O)NN,le15,0,0,0,1,randonly selected as training point or test point
"Hydroperoxide, 1,1-dimethylethyl",308.15,1,CC(C)(C)OO,le15,0,0,0,0,randonly selected as training point or test point
"1,3-Butanediol",394.25,1,CC(O)CCO,le15,0,0,0,0,randonly selected as training point or test point
"2-Propanol, 1-methoxy-",344.95,1,COCC(C)O,le15,0,0,0,0,randonly selected as training point or test point
"Ethane, 1,2-dimethoxy-",273.15,1,COCCOC,le15,0,0,0,0,randonly selected as training point or test point
"Ethanol, 2-ethoxy-",317.15,1,CCOCCO,le15,0,0,0,0,randonly selected as training point or test point
"2-methylpropane-1,2-diol",346.85,1,CC(C)(O)CO,le15,0,0,0,0,randonly selected as training point or test point
"1,2-Butanediol",366.45,1,CCC(O)CO,le15,0,0,0,0,randonly selected as training point or test point
2-methoxypropan-1-ol,315.05,1,COC(C)CO,le15,0,0,0,0,randonly selected as training point or test point
"1-Propanol, 3-methoxy-",325.95,1,COCCCO,le15,0,0,0,0,randonly selected as training point or test point
"2-methylpropane-1,3-diol",375.65,1,CC(CO)CO,le15,0,0,0,0,randonly selected as training point or test point
1methoxy2propanol,311.0,1,COCC(C)O,le15,0,0,0,0,randonly selected as training point or test point
"2-Propanol, 1,3-diamino-",370.05,1,NCC(O)CN,le15,0,0,0,0,randonly selected as training point or test point
"Pseudourea, 1-methyl-2-thio- (7CI)",312.25,1,CNC(=N)S,le15,0,0,0,0,randonly selected as training point or test point
"Ethane, 1,1'-thiobis-",263.15,1,CCSCC,le15,0,0,0,0,randonly selected as training point or test point
1-methylsulfanylpropane,273.15,1,CCCSC,le15,0,0,0,0,randonly selected as training point or test point
"2-Propanethiol, 2-methyl-",249.15,1,CC(C)(C)S,le15,0,0,0,0,randonly selected as training point or test point
2butanethiol,250.0,1,CCC(C)S,le15,0,0,0,0,randonly selected as training point or test point
2methyl2propanethiol,247.0,1,CC(C)(C)S,le15,0,0,0,0,randonly selected as training point or test point
prop-2-enoyl chloride,289.25,1,C=CC(=O)Cl,le15,0,0,0,0,randonly selected as training point or test point
"1-Propene, 3-chloro-2-methyl-",260.35,1,C=C(C)CCl,le15,0,0,0,0,randonly selected as training point or test point
(Z)-2-chlorobut-2-ene,254.15,1,C/C=C(/C)Cl,le15,0,0,0,0,randonly selected as training point or test point
(Z)-1-chlorobut-2-ene,378.55,1,C/C=C\CCl,le15,0,0,0,0,randonly selected as training point or test point
(E)-1-chlorobut-2-ene,261.15,1,C/C=C/CCl,le15,0,0,0,0,randonly selected as training point or test point
(E)-1-chlorobut-2-ene,258.15,1,C/C=C/CCl,le15,0,0,0,0,randonly selected as training point or test point
chloromethylcyclopropane,271.45,1,ClCC1CC1,le15,0,0,0,0,randonly selected as training point or test point
3chloro2methyl1propene,261.0,1,C=C(C)CCl,le15,0,0,0,0,randonly selected as training point or test point
"1,3-Propanediol, 2-amino-",388.25,1,NC(CO)CO,le15,0,0,0,0,randonly selected as training point or test point
Hydrazinecarbothioamide,353.15,1,NNC(N)=S,le15,0,0,0,0,randonly selected as training point or test point
"Acetic acid, fluoro-, methyl ester",290.75,1,COC(=O)CF,le15,0,0,0,1,randonly selected as training point or test point
Glycerol,457.0,1,OCC(O)CO,le15,0,0,0,0,randonly selected as training point or test point
"Acetic acid, mercapto-",372.95,1,O=C(O)CS,le15,0,0,0,1,randonly selected as training point or test point
"Benzene, methyl-",283.15,1,Cc1ccccc1,le15,0,0,0,0,randonly selected as training point or test point
"Bicyclo(2.2.1)hepta-2,5-diene",262.05,1,C1=CC2C=CC1C2,le15,0,0,0,0,randonly selected as training point or test point
"1,3,5-Cycloheptatriene",299.85,1,C1=CC=CCC=C1,le15,0,0,0,0,randonly selected as training point or test point
"2-Propanone, 1-chloro-",300.95,1,CC(=O)CCl,le15,0,0,0,0,randonly selected as training point or test point
"Propane, 1-chloro-2,3-epoxy-",307.05,1,ClCC1CO1,le15,0,0,0,0,randonly selected as training point or test point
3-chloropropanal,299.55,1,O=CCCCl,le15,0,0,0,0,randonly selected as training point or test point
PropanoylChloride,285.0,1,CCC(=O)Cl,le15,0,0,0,0,randonly selected as training point or test point
2-chloro-2-methylpropane,291.45,1,CC(C)(C)Cl,le15,0,0,0,0,randonly selected as training point or test point
"2-chloro-1,1,1,3,3,3-hexadeuterio-2-(trideuteriomethyl)propane",291.45,1,[2H]C([2H])([2H])C(Cl)(C([2H])([2H])[2H])C([2H])([2H])[2H],le15,0,0,0,0,randonly selected as training point or test point
1chloro2methylpropane,294.0,1,CC(C)CCl,le15,0,0,0,0,randonly selected as training point or test point
1chlorobutane,267.0,1,CCCCCl,le15,0,0,0,0,randonly selected as training point or test point
2chloro2methylpropane,291.0,1,CC(C)(C)Cl,le15,0,0,0,0,randonly selected as training point or test point
furan-2-carbonitrile,308.15,1,N#Cc1ccco1,le15,0,0,0,0,randonly selected as training point or test point
Benzenamine,349.15,1,Nc1ccccc1,le15,0,0,0,0,randonly selected as training point or test point
"Pyridine, 4-methyl-",313.15,1,Cc1ccncc1,le15,0,0,0,0,randonly selected as training point or test point
"Pyridine, 3-methyl-",309.261,1,Cc1cccnc1,le15,0,0,0,0,randonly selected as training point or test point
"Pyridine, 2-methyl-",299.261,1,Cc1ccccn1,le15,0,0,0,0,randonly selected as training point or test point
2chloropyridine,339.0,1,Clc1ccccn1,le15,0,0,0,0,randonly selected as training point or test point
3picoline,313.0,1,Cc1cccnc1,le15,0,0,0,0,randonly selected as training point or test point
4methylpyridine,310.0,1,Cc1ccncc1,le15,0,0,0,0,randonly selected as training point or test point
4picoline,313.0,1,Cc1ccncc1,le15,0,0,0,0,randonly selected as training point or test point
"Acetamide, 2-chloro-",381.75,1,NC(=O)CCl,le15,0,0,0,0,randonly selected as training point or test point
dimethylphosphinic acid,410.85,1,CP(C)(=O)O,le15,0,0,0,1,randonly selected as training point or test point
2-ethenylfuran,278.65,1,C=Cc1ccco1,le15,0,0,0,0,randonly selected as training point or test point
"Pyrazine, 2-methyl-",323.15,1,Cc1cnccn1,le15,0,0,0,0,randonly selected as training point or test point
"Pyridine, 3-amino-",397.15,1,Nc1cccnc1,le15,0,0,0,0,randonly selected as training point or test point
"Pyridine, 4-amino-",429.15,1,Nc1ccncc1,le15,0,0,0,0,randonly selected as training point or test point
3-methylpyridazine,360.95,1,Cc1cccnn1,le15,0,0,0,0,randonly selected as training point or test point
5-methylpyrimidine,316.406,1,Cc1cncnc1,le15,0,0,0,0,randonly selected as training point or test point
4-methylpyrimidine,313.15,1,Cc1ccncn1,le15,0,0,0,0,randonly selected as training point or test point
"2,2-dimethylpropanedinitrile",350.95,1,CC(C)(C#N)C#N,le15,0,0,0,0,randonly selected as training point or test point
2-methylpyrimidine,293.45,1,Cc1ncccn1,le15,0,0,0,0,randonly selected as training point or test point
"Methane, sulfonylbis-",416.15,1,CS(C)(=O)=O,le15,0,0,0,0,randonly selected as training point or test point
"2-methylcyclohexa-1,3-diene",276.25,1,CC1=CCCC=C1,le15,0,0,0,0,randonly selected as training point or test point
1-Hepten-3-yne,281.35,1,C=CC#CCCC,le15,0,0,0,0,randonly selected as training point or test point
"cyclohepta-1,3-diene",284.25,1,C1=CCCCC=C1,le15,0,0,0,0,randonly selected as training point or test point
2norbornene,258.0,1,C1=CC2CCC1C2,le15,0,0,0,0,randonly selected as training point or test point
"ethane-1,2-dithiol",317.55,1,SCCS,le15,0,0,0,0,randonly selected as training point or test point
Methyl disulfide (8CI),297.55,1,CSSC,le15,0,0,0,0,randonly selected as training point or test point
DimethylDisulfide,297.0,1,CSSC,le15,0,0,0,0,randonly selected as training point or test point
"Acetic acid, chloro-",399.15,1,O=C(O)CCl,le15,0,0,0,1,randonly selected as training point or test point
"Carbonochloridic acid, methyl ester",280.95,1,COC(=O)Cl,le15,0,0,0,1,randonly selected as training point or test point
"2-Propanol, 1-chloro-",324.85,1,CC(O)CCl,le15,0,0,0,0,randonly selected as training point or test point
1-chloro-2-methoxyethane,288.15,1,COCCCl,le15,0,0,0,0,randonly selected as training point or test point
chloromethoxyethane,292.15,1,CCOCCl,le15,0,0,0,0,randonly selected as training point or test point
3chloro1propanol,346.0,1,OCCCCl,le15,0,0,0,0,randonly selected as training point or test point
chloro(dimethyl)silicon,245.15,1,C[Si](C)Cl,le15,1,1,0,0,randonly selected as training point or test point
"Ethyne, dichloro- (9CI)",280.45,1,ClC#CCl,le15,0,0,0,0,randonly selected as training point or test point
1H-pyrrole-2-carbaldehyde,379.85,1,O=Cc1ccc[nH]1,le15,0,0,0,0,randonly selected as training point or test point
1H-pyridin-2-one,454.25,1,O=c1cccc[nH]1,le15,0,0,0,0,randonly selected as training point or test point
"Acetonitrile, 2,2'-iminobis-",431.05,1,N#CCNCC#N,le15,0,0,0,0,randonly selected as training point or test point
1-ethylpyrrole,298.65,1,CCn1cccc1,le15,0,0,0,0,randonly selected as training point or test point
"2,4-dimethyl-1H-pyrrole",329.75,1,Cc1c[nH]c(C)c1,le15,0,0,0,0,randonly selected as training point or test point
2-ethyl-1H-pyrrole,335.35,1,CCc1ccc[nH]1,le15,0,0,0,0,randonly selected as training point or test point
"Pyrrole, 2,5-dimethyl- (8CI)",327.15,1,Cc1ccc(C)[nH]1,le15,0,0,0,0,randonly selected as training point or test point
Chloronitromethane,297.85,1,O=[N+]([O-])CCl,le15,0,0,0,0,randonly selected as training point or test point
"Acetic acid, 2,2-difluoro-",351.15,1,O=C(O)C(F)F,le15,0,0,0,1,randonly selected as training point or test point
2-Furancarboxaldehyde,331.45,1,O=Cc1ccco1,le15,0,0,0,0,randonly selected as training point or test point
pyran-4-one,374.25,1,O=c1ccocc1,le15,0,0,0,0,randonly selected as training point or test point
pyran-2-one,362.35,1,O=c1cccco1,le15,0,0,0,0,randonly selected as training point or test point
furan-3-carbaldehyde,321.45,1,O=Cc1ccoc1,le15,0,0,0,0,randonly selected as training point or test point
Furfural,333.0,1,O=Cc1ccco1,le15,0,0,0,0,randonly selected as training point or test point
"Benzene, fluoro-",258.15,1,Fc1ccccc1,le15,0,0,0,0,randonly selected as training point or test point
Methanesulphonic acid,462.15,1,CS(=O)(=O)O,le15,0,0,0,1,randonly selected as training point or test point
"2,4-Hexadienal, (2E,4E)-",341.15,1,C/C=C/C=C/C=O,le15,0,0,0,0,randonly selected as training point or test point
"Furan, 2,5-dimethyl-",271.45,1,Cc1ccc(C)o1,le15,0,0,0,0,randonly selected as training point or test point
2-methylcyclopent-2-en-1-one,326.25,1,CC1=CCCC1=O,le15,0,0,0,0,randonly selected as training point or test point
hex-5-yn-2-one,315.85,1,C#CCCC(C)=O,le15,0,0,0,0,randonly selected as training point or test point
3-methylcyclopent-2-en-1-one,326.25,1,CC1=CC(=O)CC1,le15,0,0,0,0,randonly selected as training point or test point
"Furan, 2-ethyl-",274.15,1,CCc1ccco1,le15,0,0,0,0,randonly selected as training point or test point
"2,4-dimethylfuran",273.95,1,Cc1coc(C)c1,le15,0,0,0,0,randonly selected as training point or test point
2-Cyclohexen-1-one,328.85,1,O=C1C=CCCC1,le15,0,0,0,0,randonly selected as training point or test point
cyclohex-3-en-1-one,319.95,1,O=C1CC=CCC1,le15,0,0,0,0,randonly selected as training point or test point
"3,5-dimethyl-1H-pyrazole",363.65,1,Cc1cc(C)[nH]n1,le15,0,0,0,0,randonly selected as training point or test point
"2,5-dimethyl-1H-imidazole",415.45,1,Cc1cnc(C)[nH]1,le15,0,0,0,0,randonly selected as training point or test point
"Acrylonitrile, 3-(dimethylamino)- (7CI,8CI)",405.05,1,CN(C)C=CC#N,le15,0,0,0,0,randonly selected as training point or test point
1-ethylimidazole,352.05,1,CCn1ccnc1,le15,0,0,0,0,randonly selected as training point or test point
"1,2-dimethylimidazole",365.15,1,Cc1nccn1C,le15,0,0,0,0,randonly selected as training point or test point
3-methylcyclohexene,270.15,1,CC1C=CCCC1,le15,0,0,0,0,randonly selected as training point or test point