compound,flashpoint,pure substance,smiles,source,is_silicon,is_metallic,is_tin,is_acid,data type
"2-methyl-4,5-dihydro-1,3-thiazole",310.35,1,CC1=NCCS1,le15,0,0,0,0,randonly selected as training point or test point
4-methylpentan-2-amine,285.15,1,CC(C)CC(C)N,le15,0,0,0,0,randonly selected as training point or test point
1-Hexanamine,300.15,1,CCCCCCN,le15,0,0,0,0,randonly selected as training point or test point
"N,N-dimethylbutan-1-amine",278.15,1,CCCCN(C)C,le15,0,0,0,0,randonly selected as training point or test point
Isohexylamine,298.85,1,CC(C)CCCN,le15,0,0,0,0,randonly selected as training point or test point
N-propan-2-ylpropan-1-amine,274.25,1,CCCNC(C)C,le15,0,0,0,0,randonly selected as training point or test point
"2-Propanamine, N-(1-methylethyl)-",266.15,1,CC(C)NC(C)C,le15,0,0,0,0,randonly selected as training point or test point
"1-Propanamine, N-propyl-",276.15,1,CCCNCCC,le15,0,0,0,0,randonly selected as training point or test point
"3,3-dimethylbutan-1-amine",274.25,1,CC(C)(C)CCN,le15,0,0,0,0,randonly selected as training point or test point
"1-Butanamine, N-ethyl-",291.15,1,CCCCNCC,le15,0,0,0,0,randonly selected as training point or test point
"3,3-Dimethylbutylamine",278.75,1,CC(C)(C)CCN,le15,0,0,0,0,randonly selected as training point or test point
3-oxobutanoic acid,384.95,1,CC(=O)CC(=O)O,le15,0,0,0,1,randonly selected as training point or test point
methyl 2-oxopropanoate,312.15,1,COC(=O)C(C)=O,le15,0,0,0,0,randonly selected as training point or test point
Aceticanhydride,322.0,1,CC(=O)OC(C)=O,le15,0,0,0,0,randonly selected as training point or test point
"Propanoic acid, 2,2-dimethyl-",341.45,1,CC(C)(C)C(=O)O,le15,0,0,0,1,randonly selected as training point or test point
"Propanoic acid, ethyl ester",285.35,1,CCOC(=O)CC,le15,0,0,0,1,randonly selected as training point or test point
"Acetic acid, 1-methylethyl ester",289.85,1,CC(=O)OC(C)C,le15,0,0,0,1,randonly selected as training point or test point
"Acetic acid, propyl ester",285.95,1,CCCOC(C)=O,le15,0,0,0,1,randonly selected as training point or test point
"Ethanol, 2-(2-propenyloxy)-",328.15,1,C=CCOCCO,le15,0,0,0,0,randonly selected as training point or test point
3-hydroxy-3-methylbutan-2-one,315.35,1,CC(=O)C(C)(C)O,le15,0,0,0,0,randonly selected as training point or test point
"Butyric acid, 2-methyl- (6CI,8CI)",346.55,1,CCC(C)C(=O)O,le15,0,0,0,1,randonly selected as training point or test point
"Butanoic acid, 3-methyl-",346.55,1,CC(C)CC(=O)O,le15,0,0,0,1,randonly selected as training point or test point
"Formic acid, 2-methylpropyl ester",283.15,1,CC(C)COC=O,le15,0,0,0,1,randonly selected as training point or test point
"Propanoic acid, 2-methyl-, methyl ester",277.55,1,COC(=O)C(C)C,le15,0,0,0,1,randonly selected as training point or test point
"Hydracrylaldehyde, 2,2-dimethyl- (6CI,7CI,8CI)",333.45,1,CC(C)(C=O)CO,le15,0,0,0,0,randonly selected as training point or test point
"2-Pentanone, 5-hydroxy- (8CI)(9CI)",366.15,1,CC(=O)CCCO,le15,0,0,0,0,randonly selected as training point or test point
"Ethene, (2-methoxyethoxy)- (9CI)",282.45,1,C=COCCOC,le15,0,0,0,0,randonly selected as training point or test point
"2,2-dimethyl-1,3-dioxolane",274.85,1,CC1(C)OCCO1,le15,0,0,0,0,randonly selected as training point or test point
"Butanal, 3-methoxy- (9CI)",299.35,1,COC(C)CC=O,le15,0,0,0,0,randonly selected as training point or test point
"3,3-dimethoxyprop-1-ene",270.35,1,C=CC(OC)OC,le15,0,0,0,0,randonly selected as training point or test point
"Furfuryl alcohol, tetrahydro- (8CI)",347.15,1,OCC1CCCO1,le15,0,0,0,0,randonly selected as training point or test point
"Formic acid, sec-butyl ester (8CI)",276.65,1,CCC(C)OC=O,le15,0,0,0,1,randonly selected as training point or test point
"4-methyl-1,3-dioxane",295.35,1,CC1CCOCO1,le15,0,0,0,0,randonly selected as training point or test point
2-(ethoxymethyl)oxirane,296.65,1,CCOCC1CO1,le15,0,0,0,0,randonly selected as training point or test point
2methylbutyricacid,350.0,1,CCC(C)C(=O)O,le15,0,0,0,1,randonly selected as training point or test point
3methylbutanoicacid,347.0,1,CC(C)CC(=O)O,le15,0,0,0,1,randonly selected as training point or test point
MethylIsobutyrate,276.0,1,COC(=O)C(C)C,le15,0,0,0,0,randonly selected as training point or test point
PivalicAcid,337.0,1,CC(C)(C)C(=O)O,le15,0,0,0,0,randonly selected as training point or test point
tertButylFormate,264.0,1,CC(C)(C)OC=O,le15,0,0,0,0,randonly selected as training point or test point
"Ethanamine, N-ethyl-N-nitroso-",332.15,1,CCN(CC)N=O,le15,0,0,0,0,randonly selected as training point or test point
"1,1,3-trimethylurea",367.55,1,CNC(=O)N(C)C,le15,0,0,0,0,randonly selected as training point or test point
Butyrohydrazide,378.05,1,CCCC(=O)NN,le15,0,0,0,0,randonly selected as training point or test point
morpholin-4-amine,331.15,1,NN1CCOCC1,le15,0,0,0,0,randonly selected as training point or test point
fluorocyclohexane,282.05,1,FC1CCCCC1,le15,0,0,0,0,randonly selected as training point or test point
Fluorocyclohexane,278.0,1,FC1CCCCC1,le15,0,0,0,0,randonly selected as training point or test point
2-Imidazolidinethione,316.65,1,S=C1NCCN1,le15,0,0,0,0,randonly selected as training point or test point
Hexyl alcohol,333.15,1,CCCCCCO,le15,0,0,0,0,randonly selected as training point or test point
"Propane, 1,1'-oxybis-",253.15,1,CCCOCCC,le15,0,0,0,0,randonly selected as training point or test point
"2-Butanol, 3,3-dimethyl-",302.05,1,CC(O)C(C)(C)C,le15,0,0,0,0,randonly selected as training point or test point
2-methylpentan-2-ol,294.25,1,CCCC(C)(C)O,le15,0,0,0,0,randonly selected as training point or test point
hexan-3-ol,314.817,1,CCCC(O)CC,le15,0,0,0,0,randonly selected as training point or test point
"1-Butanol, 3,3-dimethyl-",320.95,1,CC(C)(C)CCO,le15,0,0,0,0,randonly selected as training point or test point
"1-Pentanol, 4-methyl- (9CI)",324.85,1,CC(C)CCCO,le15,0,0,0,0,randonly selected as training point or test point
hexan-2-ol,314.15,1,CCCCC(C)O,le15,0,0,0,0,randonly selected as training point or test point
"Ether, butyl ethyl",272.15,1,CCCCOCC,le15,0,0,0,0,randonly selected as training point or test point
"Propane, 2-ethoxy-2-methyl-",254.15,1,CCOC(C)(C)C,le15,0,0,0,0,randonly selected as training point or test point
"1-Butanol, 2,2-dimethyl-",310.55,1,CCC(C)(C)CO,le15,0,0,0,0,randonly selected as training point or test point
"Pentanol, 4-methyl-",324.85,1,CC(C)CCCO,le15,0,0,0,0,randonly selected as training point or test point
"2,3-dimethylbutan-2-ol",302.55,1,CC(C)C(C)(C)O,le15,0,0,0,0,randonly selected as training point or test point
1ethoxybutane,268.0,1,CCCCOCC,le15,0,0,0,0,randonly selected as training point or test point
2ethoxy2methylpropane,254.0,1,CCOC(C)(C)C,le15,0,0,0,0,randonly selected as training point or test point
2ethyl1butanol,330.0,1,CCC(CC)CO,le15,0,0,0,0,randonly selected as training point or test point
2methyl1pentanol,323.0,1,CCCC(C)CO,le15,0,0,0,0,randonly selected as training point or test point
2methyl3pentanol,319.0,1,CCC(O)C(C)C,le15,0,0,0,0,randonly selected as training point or test point
3methyl1pentanol,331.0,1,CCC(C)CCO,le15,0,0,0,0,randonly selected as training point or test point
3methyl2pentanol,313.0,1,CCC(C)C(C)O,le15,0,0,0,0,randonly selected as training point or test point
4methyl1pentanol,324.0,1,CC(C)CCCO,le15,0,0,0,0,randonly selected as training point or test point
4methyl2pentanol,314.0,1,CC(C)CC(C)O,le15,0,0,0,0,randonly selected as training point or test point
DiisopropylEther,245.0,1,CC(C)OC(C)C,le15,0,0,0,0,randonly selected as training point or test point
methyltertpentylether,262.0,1,CCC(C)(C)OC,le15,0,0,0,0,randonly selected as training point or test point
"N,N',N'-trimethylethane-1,2-diamine",282.55,1,CNCCN(C)C,le15,0,0,0,0,randonly selected as training point or test point
thiane,294.25,1,C1CCSCC1,le15,0,0,0,0,randonly selected as training point or test point
2-methylthiolane,301.25,1,CC1CCCS1,le15,0,0,0,0,randonly selected as training point or test point
3-methylthiolane,301.25,1,CC1CCSC1,le15,0,0,0,0,randonly selected as training point or test point
Cyclopentanethiol,298.0,1,SC1CCCC1,le15,0,0,0,0,randonly selected as training point or test point
"Cyclopentene, 3-chloro-",281.85,1,ClC1C=CCC1,le15,0,0,0,0,randonly selected as training point or test point
3-chloro-3-methylbut-1-yne,277.55,1,C#CC(C)(C)Cl,le15,0,0,0,0,randonly selected as training point or test point
5chloro1pentyne,288.0,1,C#CCCCCl,le15,0,0,0,0,randonly selected as training point or test point
"Urea, 1-methyl-1-nitroso- (8CI)",326.25,1,CN(N=O)C(N)=O,le15,0,0,0,0,randonly selected as training point or test point
"Carbamic acid, N-methyl-, ethyl ester",330.95,1,CCOC(=O)NC,le15,0,0,0,1,randonly selected as training point or test point
"Acetamide, N-(2-hydroxyethyl)-",449.85,1,CC(=O)NCCO,le15,0,0,0,0,randonly selected as training point or test point
"Nitrous acid, butyl ester",261.15,1,CCCCON=O,le15,0,0,0,1,randonly selected as training point or test point
"Propane, 2-methyl-2-nitro-",292.15,1,CC(C)(C)[N+](=O)[O-],le15,0,0,0,0,randonly selected as training point or test point
2-methyl-1-nitropropane,311.35,1,CC(C)C[N+](=O)[O-],le15,0,0,0,0,randonly selected as training point or test point
"Glycine, N,N-dimethyl-",332.95,1,CN(C)CC(=O)O,le15,0,0,0,0,randonly selected as training point or test point
propan-2-yl carbamate,363.25,1,CC(C)OC(N)=O,le15,0,0,0,0,randonly selected as training point or test point
"Nitrous acid, 2-methylpropyl ester",252.15,1,CC(C)CON=O,le15,0,0,0,1,randonly selected as training point or test point
tertButylNitrite,250.0,1,CC(C)(C)ON=O,le15,0,0,0,0,randonly selected as training point or test point
"2-Propanol, 1-(dimethylamino)-",308.15,1,CC(O)CN(C)C,le15,0,0,0,0,randonly selected as training point or test point
2-(propan-2-ylamino)ethanol,343.45,1,CC(C)NCCO,le15,0,0,0,0,randonly selected as training point or test point
5-Aminopentan-1-ol,338.75,1,NCCCCCO,le15,0,0,0,0,randonly selected as training point or test point
"1-Pentanol, 2-amino-",368.15,1,CCCC(N)CO,le15,0,0,0,0,randonly selected as training point or test point
"1-Propanamine, 3-ethoxy-",305.95,1,CCOCCCN,le15,0,0,0,0,randonly selected as training point or test point
2-(dimethylamino)propan-1-ol,305.25,1,CC(CO)N(C)C,le15,0,0,0,0,randonly selected as training point or test point
"Ethanol, 2-(propylamino)-",351.45,1,CCCNCCO,le15,0,0,0,0,randonly selected as training point or test point
"1-Propanol, 3-(dimethylamino)-",309.25,1,CN(C)CCCO,le15,0,0,0,0,randonly selected as training point or test point
"1,2-Ethanediamine, N-(2-aminoethyl)-",367.594,1,NCCNCCN,le15,0,0,0,0,randonly selected as training point or test point
"Ethanamine, 2-hydrazino-N,N-dimethyl-",339.05,1,CN(C)CCNN,le15,0,0,0,0,randonly selected as training point or test point
thiomorpholine,333.15,1,C1CSCCN1,le15,0,0,0,0,randonly selected as training point or test point
"Butanenitrile, 4-chloro-",358.15,1,N#CCCCCl,le15,0,0,0,0,randonly selected as training point or test point
Propanedioic acid,475.05,1,O=C(O)CC(=O)O,le15,0,0,0,1,randonly selected as training point or test point
"Guanidine, 1-nitro-",422.45,1,N=C(N)N[N+](=O)[O-],le15,0,0,0,0,randonly selected as training point or test point
4-Pyridinecarbonitrile,355.85,1,N#Cc1ccncc1,le15,0,0,0,0,randonly selected as training point or test point
3-Pyridinecarbonitrile,357.594,1,N#Cc1cccnc1,le15,0,0,0,0,randonly selected as training point or test point
Picolinonitrile (8CI),362.55,1,N#Cc1ccccn1,le15,0,0,0,0,randonly selected as training point or test point
"Ethylene glycol, monoacetate",350.55,1,CC(=O)OCCO,le15,0,0,0,0,randonly selected as training point or test point
methyl 2-hydroxypropanoate,322.15,1,COC(=O)C(C)O,le15,0,0,0,0,randonly selected as training point or test point
"Acetic acid, 2-ethoxy-",366.25,1,CCOCC(=O)O,le15,0,0,0,1,randonly selected as training point or test point
methyl 3-hydroxypropanoate,345.75,1,COC(=O)CCO,le15,0,0,0,0,randonly selected as training point or test point
methyl 2-methoxyacetate,308.15,1,COCC(=O)OC,le15,0,0,0,0,randonly selected as training point or test point
ethyl 2-hydroxyacetate,334.85,1,CCOC(=O)CO,le15,0,0,0,0,randonly selected as training point or test point
"Benzene, ethenyl-",304.255,1,C=Cc1ccccc1,le15,0,0,0,0,randonly selected as training point or test point
"Ethanol, 2-(1-methylethoxy)-",316.15,1,CC(C)OCCO,le15,0,0,0,0,randonly selected as training point or test point
"1-Propanol, 3-ethoxy-",327.55,1,CCOCCCO,le15,0,0,0,0,randonly selected as training point or test point
3-Hydroxy-3-methylbutan-1-ol,364.45,1,CC(C)(O)CCO,le15,0,0,0,0,randonly selected as training point or test point
2-(Propyloxy)ethanol,324.35,1,CCCOCCO,le15,0,0,0,0,randonly selected as training point or test point
"1,2-dimethoxypropane",273.75,1,COCC(C)OC,le15,0,0,0,0,randonly selected as training point or test point
"1-Propanol, 2-ethoxy-",319.05,1,CCOC(C)CO,le15,0,0,0,0,randonly selected as training point or test point
"1-Butanol, 3-methoxy-",319.85,1,COC(C)CCO,le15,0,0,0,0,randonly selected as training point or test point
"Hydroperoxide, 1,1-dimethylpropyl",314.35,1,CCC(C)(C)OO,le15,0,0,0,0,randonly selected as training point or test point
"Pentane-1,2-diol",377.15,1,CCCC(O)CO,le15,0,0,0,0,randonly selected as training point or test point
"2-methylbutane-2,3-diol",343.35,1,CC(O)C(C)(C)O,le15,0,0,0,0,randonly selected as training point or test point
2isopropoxyethanol,316.0,1,CC(C)OCCO,le15,0,0,0,0,randonly selected as training point or test point
"Ethanol, 2-((2-aminoethyl)amino)-",363.65,1,NCCNCCO,le15,0,0,0,0,randonly selected as training point or test point
2-(2-aminoethoxy)ethanamine,347.95,1,NCCOCCN,le15,0,0,0,0,randonly selected as training point or test point
"Hexane, 1-fluoro-",300.35,1,CCCCCCF,le15,0,0,0,0,randonly selected as training point or test point
S-ethyl ethanethioate,291.45,1,CCSC(C)=O,le15,0,0,0,0,randonly selected as training point or test point
thiolane 1-oxide,389.65,1,O=S1CCCC1,le15,0,0,0,0,randonly selected as training point or test point
"Propionaldehyde, 3-(methylthio)-",334.25,1,CSCCC=O,le15,0,0,0,0,randonly selected as training point or test point
"1,4-Oxathiane",328.75,1,C1CSCCO1,le15,0,0,0,0,randonly selected as training point or test point
4thiapentanal,331.0,1,CSCCC=O,le15,0,0,0,0,randonly selected as training point or test point
"Urea, 1,3-dimethyl-2-thio-",473.15,1,CNC(=S)NC,le15,0,0,0,0,randonly selected as training point or test point
2-methylbutane-1-thiol,292.55,1,CCC(C)CS,le15,0,0,0,0,randonly selected as training point or test point
1-ethylsulfanylpropane,292.05,1,CCCSCC,le15,0,0,0,0,randonly selected as training point or test point
3-methylbutane-1-thiol,291.45,1,CC(C)CCS,le15,0,0,0,0,randonly selected as training point or test point
1-methylsulfanylbutane,293.75,1,CCCCSC,le15,0,0,0,0,randonly selected as training point or test point
"2-Butanethiol, 2-methyl-",272.15,1,CCC(C)(C)S,le15,0,0,0,0,randonly selected as training point or test point
2methyl1butanethiol,292.0,1,CCC(C)CS,le15,0,0,0,0,randonly selected as training point or test point
2pentanethiol,282.0,1,CCCC(C)S,le15,0,0,0,0,randonly selected as training point or test point
3methyl2butanethiol,292.0,1,CC(C)C(C)S,le15,0,0,0,0,randonly selected as training point or test point
tertButylMethylSulfide,270.0,1,CSC(C)(C)C,le15,0,0,0,0,randonly selected as training point or test point
2-methylprop-2-enoyl chloride,300.85,1,C=C(C)C(=O)Cl,le15,0,0,0,0,randonly selected as training point or test point
(E)-but-2-enoyl chloride,308.15,1,C/C=C/C(=O)Cl,le15,0,0,0,0,randonly selected as training point or test point
"2-Butenal, 2-chloro- (9CI)",316.95,1,CC=C(Cl)C=O,le15,0,0,0,0,randonly selected as training point or test point
3-Chlorocrotonaldehyde,312.85,1,C/C(Cl)=C/C=O,le15,0,0,0,0,randonly selected as training point or test point
1-chloro-3-methylbut-2-ene,277.15,1,CC(C)=CCCl,le15,0,0,0,0,randonly selected as training point or test point
chlorocyclopentane,288.15,1,ClC1CCCC1,le15,0,0,0,0,randonly selected as training point or test point
"1-Butene, 3-chloro-2-methyl-",275.15,1,C=C(C)C(C)Cl,le15,0,0,0,0,randonly selected as training point or test point
"2-Butene, 1-chloro-2-methyl-",281.95,1,CC=C(C)CCl,le15,0,0,0,0,randonly selected as training point or test point
Chlorocyclopentane,288.0,1,ClC1CCCC1,le15,0,0,0,0,randonly selected as training point or test point
Serine,465.732,1,N[C@@H](CO)C(=O)O,le15,0,0,0,0,randonly selected as training point or test point
propan-2-yl nitrate,285.95,1,CC(C)O[N+](=O)[O-],le15,0,0,0,0,randonly selected as training point or test point
"Pyridine, 4-ethenyl-",324.817,1,C=Cc1ccncc1,le15,0,0,0,0,randonly selected as training point or test point
"Pyridine, 2-ethenyl-",319.85,1,C=Cc1ccccn1,le15,0,0,0,0,randonly selected as training point or test point
"Pyridine, 3-ethenyl-",324.05,1,C=Cc1cccnc1,le15,0,0,0,0,randonly selected as training point or test point
"Ethanol, 2-(2-aminoethoxy)-",349.75,1,NCCOCCO,le15,0,0,0,0,randonly selected as training point or test point
"Ethanol, 2,2'-iminobis-",410.92800000000005,1,OCCNCCO,le15,0,0,0,0,randonly selected as training point or test point
"1,3-Propanediol, 2-amino-2-methyl-",382.85,1,CC(N)(CO)CO,le15,0,0,0,0,randonly selected as training point or test point
Diethanolamine,410.0,1,OCCNCCO,le15,0,0,0,0,randonly selected as training point or test point
"Semicarbazide, 4-methyl-3-thio- (8CI)",328.75,1,CNC(=S)NN,le15,0,0,0,0,randonly selected as training point or test point
"Acetic acid, 2-fluoro-, ethyl ester",303.15,1,CCOC(=O)CF,le15,0,0,0,1,randonly selected as training point or test point
(E)-hex-3-enedinitrile,419.35,1,N#CC/C=C/CC#N,le15,0,0,0,0,randonly selected as training point or test point
"Ethanol, 2-(methoxymethoxy)-",310.95,1,COCOCCO,le15,0,0,0,0,randonly selected as training point or test point
"Ethanol, 2,2'-oxybis-",416.483,1,OCCOCCO,le15,0,0,0,0,randonly selected as training point or test point
trimethoxymethane,288.75,1,COC(OC)OC,le15,0,0,0,0,randonly selected as training point or test point
Trimethoxymethane,288.0,1,COC(OC)OC,le15,0,0,0,0,randonly selected as training point or test point
"Propanoic acid, 3-mercapto-",373.887,1,O=C(O)CCS,le15,0,0,0,1,randonly selected as training point or test point
"Acetic acid, mercapto-, methyl ester",329.15,1,COC(=O)CS,le15,0,0,0,1,randonly selected as training point or test point
"Ethene, (methylsulfonyl)- (9CI)",386.15,1,C=CS(C)(=O)=O,le15,0,0,0,0,randonly selected as training point or test point
"Benzene, 1,3-dimethyl-",298.15,1,Cc1cccc(C)c1,le15,0,0,0,0,randonly selected as training point or test point
"octa-1,7-diyne",296.45,1,C#CCCCCC#C,le15,0,0,0,0,randonly selected as training point or test point
"(1Z,3Z,5Z)-cycloocta-1,3,5-triene",300.95,1,C1=C\C=C/CC\C=C/1,le15,0,0,0,0,randonly selected as training point or test point
Carbonothioic dihydrazide,366.15,1,NNC(=S)NN,le15,0,0,0,0,randonly selected as training point or test point
2-ethylsulfanylethanol,289.25,1,CCSCCO,le15,0,0,0,0,randonly selected as training point or test point
"1,3-dithiolane",336.75,1,C1CSCS1,le15,0,0,0,0,randonly selected as training point or test point
"Acrylic acid, 3-chloro-, (Z)- (8CI)",343.25,1,O=C(O)/C=C\Cl,le15,0,0,0,1,randonly selected as training point or test point
2-methylpropanoyl chloride,274.25,1,CC(C)C(=O)Cl,le15,0,0,0,0,randonly selected as training point or test point
"Ether, 2-chloroethyl vinyl",289.15,1,C=COCCCl,le15,0,0,0,0,randonly selected as training point or test point
Butanoyl chloride,294.85,1,CCCC(=O)Cl,le15,0,0,0,0,randonly selected as training point or test point
2-(chloromethyl)-2-methyloxirane,307.65,1,CC1(CCl)CO1,le15,0,0,0,0,randonly selected as training point or test point
"2-Butanone, 3-chloro-",296.15,1,CC(=O)C(C)Cl,le15,0,0,0,0,randonly selected as training point or test point
2-chloro-2-methylpropanal,298.65,1,CC(C)(Cl)C=O,le15,0,0,0,0,randonly selected as training point or test point
1-chloropentane,284.25,1,CCCCCCl,le15,0,0,0,0,randonly selected as training point or test point
2-chloro-2-methylbutane,276.55,1,CCC(C)(C)Cl,le15,0,0,0,0,randonly selected as training point or test point