compound,flashpoint,pure substance,smiles,source,is_silicon,is_metallic,is_tin,is_acid,data type
"(4S,4aS,8aR)-4,8a-dimethyl-1,2,3,4,5,6,7,8-octahydronaphthalen-4a-ol",377.35,1,C[C@H]1CCC[C@@]2(C)CCCC[C@]12O,le15,0,0,0,0,randonly selected as training point or test point
"Ethanethiol, 2-(trimethoxysilyl)-",344.95,1,CO[Si](CCS)(OC)OC,le15,1,1,0,0,randonly selected as training point or test point
"4-Nonene, 5-butyl-",339.25,1,CCCC=C(CCCC)CCCC,le15,0,0,0,0,randonly selected as training point or test point
heptylcyclohexane,366.35,1,CCCCCCCC1CCCCC1,le15,0,0,0,0,randonly selected as training point or test point
1tridecene,353.0,1,C=CCCCCCCCCCCC,le15,0,0,0,0,randonly selected as training point or test point
"Benzonitrile, 4-chloro-3-nitro-",399.167,1,N#Cc1ccc(Cl)c([N+](=O)[O-])c1,le15,0,0,0,0,randonly selected as training point or test point
"2-Propenoic acid, 3-(4-chlorophenyl)- (9CI)",423.65,1,O=C(O)C=Cc1ccc(Cl)cc1,le15,0,0,0,1,randonly selected as training point or test point
1-bromo-2-ethenylbenzene,357.082,1,C=Cc1ccccc1Br,le15,0,0,0,0,randonly selected as training point or test point
"Benzene, (2-bromoethenyl)-",374.85,1,BrC=Cc1ccccc1,le15,0,0,0,0,randonly selected as training point or test point
1-bromo-4-ethenylbenzene,359.85,1,C=Cc1ccc(Br)cc1,le15,0,0,0,0,randonly selected as training point or test point
"Benzenamine, 2,3,4,5,6-pentafluoro-",346.15,1,Nc1c(F)c(F)c(F)c(F)c1F,le15,0,0,0,0,randonly selected as training point or test point
"Benzenamine, 2,6-dinitro- (9CI)",441.35,1,Nc1c([N+](=O)[O-])cccc1[N+](=O)[O-],le15,0,0,0,0,randonly selected as training point or test point
"1,8-dichlorooctane",391.15,1,ClCCCCCCCCCl,le15,0,0,0,0,randonly selected as training point or test point
"Benzenamine, 2,4-dinitro-",497.15,1,Nc1ccc([N+](=O)[O-])cc1[N+](=O)[O-],le15,0,0,0,0,randonly selected as training point or test point
"Benzenamine, 3,5-dinitro- (9CI)",467.55,1,Nc1cc([N+](=O)[O-])cc([N+](=O)[O-])c1,le15,0,0,0,0,randonly selected as training point or test point
phenyl(pyridin-2-yl)methanone,427.05,1,O=C(c1ccccc1)c1ccccn1,le15,0,0,0,0,randonly selected as training point or test point
3-Aminodibenzofuran,450.15,1,Nc1ccc2c(c1)oc1ccccc12,le15,0,0,0,0,randonly selected as training point or test point
phenyl(pyridin-3-yl)methanone,423.15,1,O=C(c1ccccc1)c1cccnc1,le15,0,0,0,0,randonly selected as training point or test point
2-Dibenzofuranamine,450.15,1,Nc1ccc2oc3ccccc3c2c1,le15,0,0,0,0,randonly selected as training point or test point
"Methanone, phenyl-4-pyridinyl-",423.15,1,O=C(c1ccccc1)c1ccncc1,le15,0,0,0,0,randonly selected as training point or test point
"Benzyl alcohol, 3,4-dihydroxy-alpha-((methylamino)methyl)-, (-)-",481.05,1,CNCC(O)c1ccc(O)c(O)c1,le15,0,0,0,0,randonly selected as training point or test point
N-benzylaniline,425.15,1,c1ccc(CNc2ccccc2)cc1,le15,0,0,0,0,randonly selected as training point or test point
N-methyl-N-phenylaniline,389.75,1,CN(c1ccccc1)c1ccccc1,le15,0,0,0,0,randonly selected as training point or test point
"4-Biphenylamine, 2'-methyl-",418.85,1,Cc1ccccc1-c1ccc(N)cc1,le15,0,0,0,0,randonly selected as training point or test point
"Benzenamine, 3-methyl-N-phenyl-",420.55,1,Cc1cccc(Nc2ccccc2)c1,le15,0,0,0,0,randonly selected as training point or test point
2-phenethylpyridine,379.25,1,c1ccc(CCc2ccccn2)cc1,le15,0,0,0,0,randonly selected as training point or test point
"2,4-Piperidinedione, 3,3-diethyl-5-methyl-",416.25,1,CCC1(CC)C(=O)NCC(C)C1=O,le15,0,0,0,0,randonly selected as training point or test point
"Pyrimidine, 2,4,6-trichloro-",375.65,1,Clc1cc(Cl)nc(Cl)n1,le15,0,0,0,0,randonly selected as training point or test point
"2-Benzoxazolinone, 5-chloro-3-methyl-",404.75,1,Cn1c(=O)oc2ccc(Cl)cc21,le15,0,0,0,0,randonly selected as training point or test point
"Benzeneethanamine, 4-chloro-alpha,alpha-dimethyl-",400.15,1,CC(C)(N)Cc1ccc(Cl)cc1,le15,0,0,0,0,randonly selected as training point or test point
trichloro(chloromethyl)silane,342.55,1,ClC[Si](Cl)(Cl)Cl,le15,1,1,0,0,randonly selected as training point or test point
"Propane, 1-iodo-2-methyl-",285.15,1,CC(C)CI,le15,0,0,0,0,randonly selected as training point or test point
2-iodo-2-methylpropane,280.95,1,CC(C)(C)I,le15,0,0,0,0,randonly selected as training point or test point
"Phenol, pentafluoro-",345.15,1,Oc1c(F)c(F)c(F)c(F)c1F,le15,0,0,0,0,randonly selected as training point or test point
"Phenol, 2,4-dinitro-",415.95,1,O=[N+]([O-])c1ccc(O)c([N+](=O)[O-])c1,le15,0,0,0,0,randonly selected as training point or test point
"Phenol, 2,3-dinitro-",424.35,1,O=[N+]([O-])c1cccc(O)c1[N+](=O)[O-],le15,0,0,0,0,randonly selected as training point or test point
"Phenol, 2,5-dinitro-",414.65,1,O=[N+]([O-])c1ccc([N+](=O)[O-])c(O)c1,le15,0,0,0,0,randonly selected as training point or test point
"Phenol, 2,6-dinitro-",377.95,1,O=[N+]([O-])c1cccc([N+](=O)[O-])c1O,le15,0,0,0,0,randonly selected as training point or test point
"Furan, 2-nitro-5-(2-nitroethenyl)-",420.45,1,O=[N+]([O-])C=Cc1ccc([N+](=O)[O-])o1,le15,0,0,0,0,randonly selected as training point or test point
"Phenol, 3,4-dinitro-",467.25,1,O=[N+]([O-])c1ccc(O)cc1[N+](=O)[O-],le15,0,0,0,0,randonly selected as training point or test point
"ethyl 4,4,4-trifluoro-3-oxobutanoate",302.05,1,CCOC(=O)CC(=O)C(F)(F)F,le15,0,0,0,0,randonly selected as training point or test point
"Phosphorofluoridic acid, bis(1-methylethyl) ester",337.65,1,CC(C)OP(=O)(F)OC(C)C,le15,0,0,0,1,randonly selected as training point or test point
"Dibenzo(b,e)(1,4)dioxin",388.85,1,c1ccc2c(c1)Oc1ccccc1O2,le15,0,0,0,0,randonly selected as training point or test point
"p-Benzoquinone, 2-phenyl- (8CI)",398.35,1,O=C1C=CC(=O)C(c2ccccc2)=C1,le15,0,0,0,0,randonly selected as training point or test point
"Benzenemethanol, alpha-phenyl-",413.95,1,OC(c1ccccc1)c1ccccc1,le15,0,0,0,0,randonly selected as training point or test point
"p-Cresol, alpha-phenyl- (8CI)",427.35,1,Oc1ccc(Cc2ccccc2)cc1,le15,0,0,0,0,randonly selected as training point or test point
phenoxymethylbenzene,383.95,1,c1ccc(COc2ccccc2)cc1,le15,0,0,0,0,randonly selected as training point or test point
p-Phenylbenzyl alcohol,428.05,1,OCc1ccc(-c2ccccc2)cc1,le15,0,0,0,0,randonly selected as training point or test point
2-benzylphenol,420.45,1,Oc1ccccc1Cc1ccccc1,le15,0,0,0,0,randonly selected as training point or test point
1-methyl-3-phenoxybenzene,383.95,1,Cc1cccc(Oc2ccccc2)c1,le15,0,0,0,0,randonly selected as training point or test point
1-methyl-2-phenoxybenzene,380.05,1,Cc1ccccc1Oc1ccccc1,le15,0,0,0,0,randonly selected as training point or test point
"(1,1'-Biphenyl)-4,4'-diamine",476.65,1,Nc1ccc(-c2ccc(N)cc2)cc1,le15,0,0,0,0,randonly selected as training point or test point
"1,4-Benzenediamine, N-phenyl-",470.95,1,Nc1ccc(Nc2ccccc2)cc1,le15,0,0,0,0,randonly selected as training point or test point
"Hydrazine, 1,1-diphenyl-",453.65,1,NN(c1ccccc1)c1ccccc1,le15,0,0,0,0,randonly selected as training point or test point
"2-N-phenylbenzene-1,2-diamine",454.75,1,Nc1ccccc1Nc1ccccc1,le15,0,0,0,0,randonly selected as training point or test point
"Pyridine, 4,4'-(1,2-ethanediyl)bis-",390.35,1,c1cc(CCc2ccncc2)ccn1,le15,0,0,0,0,randonly selected as training point or test point
"1,2-Diphenylhydrazine (9CI)",360.85,1,c1ccc(NNc2ccccc2)cc1,le15,0,0,0,0,randonly selected as training point or test point
Dibenzothiophene,443.15,1,c1ccc2c(c1)sc1ccccc12,le15,0,0,0,0,randonly selected as training point or test point
2-butylnaphthalene,405.25,1,CCCCc1ccc2ccccc2c1,le15,0,0,0,0,randonly selected as training point or test point
2-tert-butylnaphthalene,394.75,1,CC(C)(C)c1ccc2ccccc2c1,le15,0,0,0,0,randonly selected as training point or test point
1-tert-butylnaphthalene,394.75,1,CC(C)(C)c1cccc2ccccc12,le15,0,0,0,0,randonly selected as training point or test point
1-butylnaphthalene,404.55,1,CCCCc1cccc2ccccc12,le15,0,0,0,0,randonly selected as training point or test point
"2-Propenoic acid, 2-ethylhexyl ester",352.55,1,C=CC(=O)OCC(CC)CCCC,le15,0,0,0,1,randonly selected as training point or test point
"6-Octen-1-ol, 3,7-dimethyl-, formate",365.35,1,CC(C)=CCCC(C)CCOC=O,le15,0,0,0,0,randonly selected as training point or test point
"Octanoic acid, 2-propenyl ester",368.15,1,C=CCOC(=O)CCCCCCC,le15,0,0,0,1,randonly selected as training point or test point
10-Undecenoic acid,418.965,1,C=CCCCCCCCCC(=O)O,le15,0,0,0,1,randonly selected as training point or test point
"Undecanal, 2-methyl-",366.45,1,CCCCCCCCCC(C)C=O,le15,0,0,0,0,randonly selected as training point or test point
Lauraldehyde (8CI),375.15,1,CCCCCCCCCCCC=O,le15,0,0,0,0,randonly selected as training point or test point
2-Dodecanone,354.35,1,CCCCCCCCCCC(C)=O,le15,0,0,0,0,randonly selected as training point or test point
"2,6,8-trimethylnonan-4-one",336.25,1,CC(C)CC(=O)CC(C)CC(C)C,le15,0,0,0,0,randonly selected as training point or test point
"1,3,5-Triazine, 2,4,6-trichloro-",487.55,1,Clc1nc(Cl)nc(Cl)n1,le15,0,0,0,0,randonly selected as training point or test point
5-n-Butylnonane,338.05,1,CCCCC(CCCC)CCCC,le15,0,0,0,0,randonly selected as training point or test point
"Ethane, 2-chloro-2-(difluoromethoxy)-1,1,1-trifluoro-",321.65,1,FC(F)OC(Cl)C(F)(F)F,le15,0,0,0,0,randonly selected as training point or test point
"6-Benzoxazolol, 2-amino-5-chloro- (8CI)(9CI)",450.85,1,Nc1nc2cc(Cl)c(O)cc2o1,le15,0,0,0,0,randonly selected as training point or test point
2-phenoxypropanoyl chloride,361.45,1,CC(Oc1ccccc1)C(=O)Cl,le15,0,0,0,0,randonly selected as training point or test point
ethyl 4-chlorobenzoate,380.35,1,CCOC(=O)c1ccc(Cl)cc1,le15,0,0,0,0,randonly selected as training point or test point
ethyl 3-chlorobenzoate,388.35,1,CCOC(=O)c1cccc(Cl)c1,le15,0,0,0,0,randonly selected as training point or test point
4-chloro-5-methyl-2-propan-2-ylphenol,382.65,1,Cc1cc(O)c(C(C)C)cc1Cl,le15,0,0,0,0,randonly selected as training point or test point
chloromethyl-dimethyl-phenylsilane,364.25,1,C[Si](C)(CCl)c1ccccc1,le15,1,1,0,0,randonly selected as training point or test point
"Acetamide, 2-iodo-",406.65,1,NC(=O)CI,le15,0,0,0,0,randonly selected as training point or test point
benzoyl bromide,362.85,1,O=C(Br)c1ccccc1,le15,0,0,0,0,randonly selected as training point or test point
"Benzaldehyde, 4-bromo-",382.05,1,O=Cc1ccc(Br)cc1,le15,0,0,0,0,randonly selected as training point or test point
"Benzaldehyde, 2-bromo-",369.35,1,O=Cc1ccccc1Br,le15,0,0,0,0,randonly selected as training point or test point
"Benzene, (2-bromoethyl)-",362.55,1,BrCCc1ccccc1,le15,0,0,0,0,randonly selected as training point or test point
1-(bromomethyl)-4-methylbenzene,370.95,1,Cc1ccc(CBr)cc1,le15,0,0,0,0,randonly selected as training point or test point
"1-bromo-3,5-dimethylbenzene",360.35,1,Cc1cc(C)cc(Br)c1,le15,0,0,0,0,randonly selected as training point or test point
"2-bromo-1,3-dimethylbenzene",347.05,1,Cc1cccc(C)c1Br,le15,0,0,0,0,randonly selected as training point or test point
"1-bromo-2,3-dimethylbenzene",357.15,1,Cc1cccc(Br)c1C,le15,0,0,0,0,randonly selected as training point or test point
"1-bromo-2,4-dimethylbenzene",354.75,1,Cc1ccc(Br)c(C)c1,le15,0,0,0,0,randonly selected as training point or test point
alpha-Methylbenzyl bromide,353.35,1,CC(Br)c1ccccc1,le15,0,0,0,0,randonly selected as training point or test point
1-(bromomethyl)-3-methylbenzene,355.15,1,Cc1cccc(CBr)c1,le15,0,0,0,0,randonly selected as training point or test point
"Benzene, 1-bromo-4-ethyl-",344.35,1,CCc1ccc(Br)cc1,le15,0,0,0,0,randonly selected as training point or test point
1-bromo-2-ethylbenzene,344.15,1,CCc1ccccc1Br,le15,0,0,0,0,randonly selected as training point or test point
1-(bromomethyl)-2-methylbenzene,355.15,1,Cc1ccccc1CBr,le15,0,0,0,0,randonly selected as training point or test point
"2-bromo-1,4-dimethylbenzene",352.15,1,Cc1ccc(C)c(Br)c1,le15,0,0,0,0,randonly selected as training point or test point
"4-bromo-1,2-dimethylbenzene",358.95,1,Cc1ccc(Br)cc1C,le15,0,0,0,0,randonly selected as training point or test point
"1H-Imidazole-1-acetic acid, 2-methyl-5-nitro-",514.75,1,Cc1ncc([N+](=O)[O-])n1CC(=O)O,le15,0,0,0,1,randonly selected as training point or test point
"Furo(2,3-b)quinolin-4(9H)-one",429.85,1,O=c1c2ccccc2[nH]c2occc12,le15,0,0,0,0,randonly selected as training point or test point
"Phenol, m-anilino- (8CI)",420.55,1,Oc1cccc(Nc2ccccc2)c1,le15,0,0,0,0,randonly selected as training point or test point
"Phenol, 4-(phenylamino)-",419.35,1,Oc1ccc(Nc2ccccc2)cc1,le15,0,0,0,0,randonly selected as training point or test point
"Benzenamine, 4-phenoxy-",428.95,1,Nc1ccc(Oc2ccccc2)cc1,le15,0,0,0,0,randonly selected as training point or test point
"(1,1'-Biphenyl)-4-ol, 3-amino-",442.25,1,Nc1cc(-c2ccccc2)ccc1O,le15,0,0,0,0,randonly selected as training point or test point
2-phenoxyaniline,386.15,1,Nc1ccccc1Oc1ccccc1,le15,0,0,0,0,randonly selected as training point or test point
"(1,1'-Biphenyl)-3-ol, 4-amino-",438.75,1,Nc1ccc(-c2ccccc2)cc1O,le15,0,0,0,0,randonly selected as training point or test point
2-(1-Naphthyl)acetamide,481.35,1,NC(=O)Cc1cccc2ccccc12,le15,0,0,0,0,randonly selected as training point or test point
"Isothiocyanic acid, 1-naphthyl ester",440.35,1,S=C=Nc1cccc2ccccc12,le15,0,0,0,1,randonly selected as training point or test point
"2-Propenoic acid, 2-methyl-, 2-(diethylamino)ethyl ester",349.85,1,C=C(C)C(=O)OCCN(CC)CC,le15,0,0,0,1,randonly selected as training point or test point
"1-Butanamine, N,N-dibutyl-",336.45,1,CCCCN(CCCC)CCCC,le15,0,0,0,0,randonly selected as training point or test point
"1-Hexanamine, N-hexyl-",368.15,1,CCCCCCNCCCCCC,le15,0,0,0,0,randonly selected as training point or test point
"1-Propanamine, 2-methyl-N,N-bis(2-methylpropyl)-",330.35,1,CC(C)CN(CC(C)C)CC(C)C,le15,0,0,0,0,randonly selected as training point or test point
Tributylamine,345.0,1,CCCCN(CCCC)CCCC,le15,0,0,0,0,randonly selected as training point or test point
2-bromobutanoyl chloride,321.95,1,CCC(Br)C(=O)Cl,le15,0,0,0,0,randonly selected as training point or test point
"Silanamine, 1-ethenyl-N-(ethenyldimethylsilyl)-1,1-dimethyl-",325.25,1,C=C[Si](C)(C)N[Si](C)(C)C=C,le15,1,1,0,0,randonly selected as training point or test point
"Benzoyl chloride, 3-nitro-",385.15,1,O=C(Cl)c1cccc([N+](=O)[O-])c1,le15,0,0,0,0,randonly selected as training point or test point
"Benzaldehyde, 2-chloro-5-nitro-",402.55,1,O=Cc1cc([N+](=O)[O-])ccc1Cl,le15,0,0,0,0,randonly selected as training point or test point
"Benzoyl chloride, 4-nitro-",394.95,1,O=C(Cl)c1ccc([N+](=O)[O-])cc1,le15,0,0,0,0,randonly selected as training point or test point
2-Chloro-6-nitrobenzaldehyde,407.65,1,O=Cc1c(Cl)cccc1[N+](=O)[O-],le15,0,0,0,0,randonly selected as training point or test point
"Carbamic acid, methyl-, 2-chlorophenyl ester",380.45,1,CNC(=O)Oc1ccccc1Cl,le15,0,0,0,1,randonly selected as training point or test point
"Acetamide, N-(4-chlorophenyl)-N-hydroxy- (9CI)",422.15,1,CC(=O)N(O)c1ccc(Cl)cc1,le15,0,0,0,0,randonly selected as training point or test point
"1,1,1,2-tetrachloro-2-fluoroethane",299.55,1,FC(Cl)C(Cl)(Cl)Cl,le15,0,0,0,0,randonly selected as training point or test point
"1,1,2,2-tetrachloro-1-fluoroethane",298.25,1,FC(Cl)(Cl)C(Cl)Cl,le15,0,0,0,0,randonly selected as training point or test point
"1,2,3,4,5,6-hexafluorobenzene",283.15,1,Fc1c(F)c(F)c(F)c(F)c1F,le15,0,0,0,0,randonly selected as training point or test point
2-bromo-4-methylaniline,375.05,1,Cc1ccc(N)c(Br)c1,le15,0,0,0,0,randonly selected as training point or test point
4-bromo-3-methylaniline,374.35,1,Cc1cc(N)ccc1Br,le15,0,0,0,0,randonly selected as training point or test point
"Benzenamine, 3-bromo-4-methyl- (9CI)",383.15,1,Cc1ccc(N)cc1Br,le15,0,0,0,0,randonly selected as training point or test point
"Benzene, 1-fluoro-2,4-dinitro-",405.95,1,O=[N+]([O-])c1ccc(F)c([N+](=O)[O-])c1,le15,0,0,0,0,randonly selected as training point or test point
"2,2,3,3-tetrafluoropropyl prop-2-enoate",307.85,1,C=CC(=O)OCC(F)(F)C(F)F,le15,0,0,0,0,randonly selected as training point or test point
"1H-Benzimidazole, 2-(trifluoromethyl)- (9CI)",385.85,1,FC(F)(F)c1nc2ccccc2[nH]1,le15,0,0,0,0,randonly selected as training point or test point
"Phosphonic acid, phenyl-, O,O-dimethyl ester",390.45,1,COP(=O)(OC)c1ccccc1,le15,0,0,0,1,randonly selected as training point or test point
"7H-Furo(3,2-g)(1)benzopyran-7-one",446.25,1,O=c1ccc2cc3ccoc3cc2o1,le15,0,0,0,0,randonly selected as training point or test point
"2H-Furo(2,3-h)(1)benzopyran-2-one",446.25,1,O=c1ccc2ccc3occc3c2o1,le15,0,0,0,0,randonly selected as training point or test point
"7-Oxabicyclo(2.2.1)heptane-2,3-dicarboxylic acid",463.65,1,O=C(O)C1C2CCC(O2)C1C(=O)O,le15,0,0,0,1,randonly selected as training point or test point
"1,3,5,7-Tetraazabicyclo(3.3.1)nonane, 3,7-dinitroso-",504.25,1,O=NN1CN2CN(C1)CN(N=O)C2,le15,0,0,0,0,randonly selected as training point or test point
"(1,1'-Biphenyl)-4,4'-diol",449.25,1,Oc1ccc(-c2ccc(O)cc2)cc1,le15,0,0,0,0,randonly selected as training point or test point
"Phenol, p-phenoxy- (8CI)",414.55,1,Oc1ccc(Oc2ccccc2)cc1,le15,0,0,0,0,randonly selected as training point or test point
"(1,1'-Biphenyl)-2,5-diol",465.45,1,Oc1ccc(O)c(-c2ccccc2)c1,le15,0,0,0,0,randonly selected as training point or test point
methyl naphthalene-2-carboxylate,418.95,1,COC(=O)c1ccc2ccccc2c1,le15,0,0,0,0,randonly selected as training point or test point
"2(1H)-Pyridone, 1-(m-aminophenyl)-",483.85,1,Nc1cccc(-n2ccccc2=O)c1,le15,0,0,0,0,randonly selected as training point or test point
"diethyl cyclopropane-1,1-dicarboxylate",359.85,1,CCOC(=O)C1(C(=O)OCC)CC1,le15,0,0,0,0,randonly selected as training point or test point
diethyl 2-methylidenebutanedioate,381.15,1,C=C(CC(=O)OCC)C(=O)OCC,le15,0,0,0,0,randonly selected as training point or test point
"Hexanedioic acid, ethenyl methyl ester (9CI)",378.15,1,C=COC(=O)CCCCC(=O)OC,le15,0,0,0,1,randonly selected as training point or test point
diethyl (E)-pent-2-enedioate,379.85,1,CCOC(=O)/C=C/CC(=O)OCC,le15,0,0,0,0,randonly selected as training point or test point
"Benzenesulfonic acid, ethyl ester",398.65,1,CCOS(=O)(=O)c1ccccc1,le15,0,0,0,1,randonly selected as training point or test point
"Phosphorodithioic acid, O,O-diethyl ester",355.95,1,CCOP(=S)([S-])OCC,le15,0,0,0,1,randonly selected as training point or test point
"Benzenesulfonamide, 4-amino-N-methyl- (9CI)",444.15,1,CNS(=O)(=O)c1ccc(N)cc1,le15,0,0,0,0,randonly selected as training point or test point
"Cyclohexaneacetic acid, alpha-ethyl-1-hydroxy-",443.25,1,CCC(C(=O)O)C1(O)CCCCC1,le15,0,0,0,1,randonly selected as training point or test point
"Decanoic acid, 9-oxo-",444.95,1,CC(=O)CCCCCCCC(=O)O,le15,0,0,0,1,randonly selected as training point or test point
3-methylbutanoyl 3-methylbutanoate,364.45,1,CC(C)CC(=O)OC(=O)CC(C)C,le15,0,0,0,0,randonly selected as training point or test point
"2,2-dimethylpropanoyl 2,2-dimethylpropanoate",330.15,1,CC(C)(C)C(=O)OC(=O)C(C)(C)C,le15,0,0,0,0,randonly selected as training point or test point
"ethyl 2,2-diethyl-3-oxobutanoate",354.55,1,CCOC(=O)C(CC)(CC)C(C)=O,le15,0,0,0,0,randonly selected as training point or test point
ethyl 2-acetylhexanoate,362.25,1,CCCCC(C(C)=O)C(=O)OCC,le15,0,0,0,0,randonly selected as training point or test point
pentanoyl pentanoate,374.25,1,CCCCC(=O)OC(=O)CCCC,le15,0,0,0,0,randonly selected as training point or test point
"Benzene, 1,1'-thiobis-",401.55,1,c1ccc(Sc2ccccc2)cc1,le15,0,0,0,0,randonly selected as training point or test point
"1,2,3,4,5,6,7,8-octahydroanthracene",409.55,1,c1c2c(cc3c1CCCC3)CCCC2,le15,0,0,0,0,randonly selected as training point or test point
"1,2,3,4,5,6,7,8-octahydrophenanthrene",405.35,1,c1cc2c(c3c1CCCC3)CCCC2,le15,0,0,0,0,randonly selected as training point or test point
"Decanoic acid, methyl ester",363.15,1,CCCCCCCCCC(=O)OC,le15,0,0,0,1,randonly selected as training point or test point
Undecanoic acid,401.35,1,CCCCCCCCCCC(=O)O,le15,0,0,0,1,randonly selected as training point or test point
"Nonanoic acid, ethyl ester",367.55,1,CCCCCCCCC(=O)OCC,le15,0,0,0,1,randonly selected as training point or test point
octyl propanoate,365.15,1,CCCCCCCCOC(=O)CC,le15,0,0,0,0,randonly selected as training point or test point