compound,flashpoint,pure substance,smiles,source,is_silicon,is_metallic,is_tin,is_acid,data type
"Hexane-1,6-dithiol",363.75,1,SCCCCCCS,le15,0,0,0,0,randonly selected as training point or test point
"1,2-Bis(ethylthio)ethane",354.35,1,CCSCCSCC,le15,0,0,0,0,randonly selected as training point or test point
Isopropyl disulfide (8CI),291.45,1,CC(C)SSC(C)C,le15,0,0,0,0,randonly selected as training point or test point
"Acetic acid, chloro-, 1,1-dimethylethyl ester",314.55,1,CC(C)(C)OC(=O)CCl,le15,0,0,0,1,randonly selected as training point or test point
butyl 2-chloroacetate,353.05,1,CCCCOC(=O)CCl,le15,0,0,0,0,randonly selected as training point or test point
"Butyric acid, 4-chloro-, ethyl ester (8CI)",324.85,1,CCOC(=O)CCCCl,le15,0,0,0,1,randonly selected as training point or test point
"Hexanoic acid, 6-chloro-",380.75,1,O=C(O)CCCCCCl,le15,0,0,0,1,randonly selected as training point or test point
"1,3-Dioxolane, 4-(chloromethyl)-2,2-dimethyl-",327.65,1,CC1(C)OCC(CCl)O1,le15,0,0,0,0,randonly selected as training point or test point
propan-2-yl 2-chloropropanoate,317.85,1,CC(C)OC(=O)C(C)Cl,le15,0,0,0,0,randonly selected as training point or test point
butyl-chloro-dimethylsilane,303.25,1,CCCC[Si](C)(C)Cl,le15,1,1,0,0,randonly selected as training point or test point
3-chloropropyl(trimethyl)silane,303.65,1,C[Si](C)(C)CCCCl,le15,1,1,0,0,randonly selected as training point or test point
2-bromopentane,293.75,1,CCCC(C)Br,le15,0,0,0,0,randonly selected as training point or test point
(2S)-1-bromo-2-methylbutane,295.35,1,CC[C@H](C)CBr,le15,0,0,0,0,randonly selected as training point or test point
3-bromopentane,304.45,1,CCC(Br)CC,le15,0,0,0,0,randonly selected as training point or test point
1-bromo-3-methylbutane,305.35,1,CC(C)CCBr,le15,0,0,0,0,randonly selected as training point or test point
"Propane, 1-bromo-2,2-dimethyl-",279.85,1,CC(C)(C)CBr,le15,0,0,0,0,randonly selected as training point or test point
"2,3,5,6-tetrafluoropyridine",303.75,1,Fc1cc(F)c(F)nc1F,le15,0,0,0,0,randonly selected as training point or test point
"Benzaldehyde, 3-nitro-",401.75,1,O=Cc1cccc([N+](=O)[O-])c1,le15,0,0,0,0,randonly selected as training point or test point
"Benzaldehyde, 4-nitro-",428.35,1,O=Cc1ccc([N+](=O)[O-])cc1,le15,0,0,0,0,randonly selected as training point or test point
"Benzaldehyde, 2-nitro-",417.15,1,O=Cc1ccccc1[N+](=O)[O-],le15,0,0,0,0,randonly selected as training point or test point
"1,3-Propanediol, 2-(hydroxymethyl)-2-nitro-",482.45,1,O=[N+]([O-])C(CO)(CO)CO,le15,0,0,0,0,randonly selected as training point or test point
"Benzene, 1,3-dimethyl-2-nitro-",360.95,1,Cc1cccc(C)c1[N+](=O)[O-],le15,0,0,0,0,randonly selected as training point or test point
"Benzene, 1,2-dimethyl-3-nitro-",380.95,1,Cc1cccc([N+](=O)[O-])c1C,le15,0,0,0,0,randonly selected as training point or test point
"Benzene, 1,4-dimethyl-2-nitro-",373.15,1,Cc1ccc(C)c([N+](=O)[O-])c1,le15,0,0,0,0,randonly selected as training point or test point
"m-Xylene, 4-nitro- (8CI)",394.15,1,Cc1ccc([N+](=O)[O-])c(C)c1,le15,0,0,0,0,randonly selected as training point or test point
"o-Xylene, 4-nitro- (8CI)",394.65,1,Cc1ccc([N+](=O)[O-])cc1C,le15,0,0,0,0,randonly selected as training point or test point
"Benzene, 1-ethyl-4-nitro-",380.85,1,CCc1ccc([N+](=O)[O-])cc1,le15,0,0,0,0,randonly selected as training point or test point
"Acetamide, N-(4-hydroxyphenyl)-",461.55,1,CC(=O)Nc1ccc(O)cc1,le15,0,0,0,0,randonly selected as training point or test point
"Acetamide, N-(3-hydroxyphenyl)-",458.35,1,CC(=O)Nc1cccc(O)c1,le15,0,0,0,0,randonly selected as training point or test point
"Acetamide, 2-phenoxy-",474.05,1,NC(=O)COc1ccccc1,le15,0,0,0,0,randonly selected as training point or test point
"Acetic acid, (p-aminophenyl)-",435.05,1,Nc1ccc(CC(=O)O)cc1,le15,0,0,0,1,randonly selected as training point or test point
ethyl pyridine-4-carboxylate,362.15,1,CCOC(=O)c1ccncc1,le15,0,0,0,0,randonly selected as training point or test point
"Acetamide, N-hydroxy-N-phenyl-",389.95,1,CC(=O)N(O)c1ccccc1,le15,0,0,0,0,randonly selected as training point or test point
"Benzamide, 2-methoxy- (9CI)",428.85,1,COc1ccccc1C(N)=O,le15,0,0,0,0,randonly selected as training point or test point
3-Amino-p-toluic acid,446.45,1,Cc1ccc(C(=O)O)c(N)c1,le15,0,0,0,1,randonly selected as training point or test point
ethyl pyridine-2-carboxylate,380.35,1,CCOC(=O)c1ccccn1,le15,0,0,0,0,randonly selected as training point or test point
4-methoxybenzamide,434.65,1,COc1ccc(C(N)=O)cc1,le15,0,0,0,0,randonly selected as training point or test point
2-nitroethylbenzene,391.95,1,O=[N+]([O-])CCc1ccccc1,le15,0,0,0,0,randonly selected as training point or test point
"m-Xylene, 5-nitro- (8CI)",384.55,1,Cc1cc(C)cc([N+](=O)[O-])c1,le15,0,0,0,0,randonly selected as training point or test point
"Benzoic acid, 2-amino-, methyl ester",386.05,1,COC(=O)c1ccccc1N,le15,0,0,0,1,randonly selected as training point or test point
ethyl pyridine-3-carboxylate,366.15,1,CCOC(=O)c1cccnc1,le15,0,0,0,0,randonly selected as training point or test point
"Benzene, 1-ethoxy-4-nitroso-",388.25,1,CCOc1ccc(N=O)cc1,le15,0,0,0,0,randonly selected as training point or test point
"1,2-Benzisothiazol-3(2H)-one",350.65,1,O=c1[nH]sc2ccccc12,le15,0,0,0,0,randonly selected as training point or test point
"3H-1,3-benzothiazol-2-one",444.65,1,O=c1[nH]c2ccccc2s1,le15,0,0,0,0,randonly selected as training point or test point
"Ethanol, 2-(methylphenylamino)-",399.85,1,CN(CCO)c1ccccc1,le15,0,0,0,0,randonly selected as training point or test point
"Phenol, 3-(ethylamino)-4-methyl-",412.85,1,CCNc1cc(O)ccc1C,le15,0,0,0,0,randonly selected as training point or test point
"2-methoxy-N,N-dimethylaniline",332.35,1,COc1ccccc1N(C)C,le15,0,0,0,0,randonly selected as training point or test point
"Pyridine, 5-ethyl-2-hydroxyethyl-",383.85,1,CCc1ccc(CCO)nc1,le15,0,0,0,0,randonly selected as training point or test point
"Tricyclo(3.3.1.1(sup 3,7))decan-1-amine",369.15,1,NC12CC3CC(CC(C3)C1)C2,le15,0,0,0,0,randonly selected as training point or test point
"1,1,1-trichloro-2-fluoroethane",279.35,1,FCC(Cl)(Cl)Cl,le15,0,0,0,0,randonly selected as training point or test point
"1,1,2-trichloro-2-fluoroethane",283.35,1,FC(Cl)C(Cl)Cl,le15,0,0,0,0,randonly selected as training point or test point
"Acetonitrile, (p-chlorophenyl)-",406.15,1,N#CCc1ccc(Cl)cc1,le15,0,0,0,0,randonly selected as training point or test point
2-(chloromethyl)benzonitrile,379.35,1,N#Cc1ccccc1CCl,le15,0,0,0,0,randonly selected as training point or test point
4-(Chloromethyl)benzonitrile,393.35,1,N#Cc1ccc(CCl)cc1,le15,0,0,0,0,randonly selected as training point or test point
2-(2-chlorophenyl)acetonitrile,380.85,1,N#CCc1ccccc1Cl,le15,0,0,0,0,randonly selected as training point or test point
"Benzonitrile, 2-chloro-6-methyl-",383.25,1,Cc1cccc(Cl)c1C#N,le15,0,0,0,0,randonly selected as training point or test point
"Propanamide, 2-bromo- (9CI)",377.15,1,CC(Br)C(N)=O,le15,0,0,0,0,randonly selected as training point or test point
"7H-1,2,3-Triazolo(4,5-d)pyrimidin-7-one, 5-amino-1,4-dihydro- (9CI)",402.25,1,Nc1nc(=O)c2[nH]nnc2[nH]1,le15,0,0,0,0,randonly selected as training point or test point
"Benzoxazole, 2-amino-5-fluoro-",398.05,1,Nc1nc2cc(F)ccc2o1,le15,0,0,0,0,randonly selected as training point or test point
1-[ethoxy(methyl)phosphoryl]oxyethane,348.75,1,CCOP(C)(=O)OCC,le15,0,0,0,0,randonly selected as training point or test point
"Phosphonic acid, ethyl-, ethyl methyl ester",353.15,1,CCOP(=O)(CC)OC,le15,0,0,0,1,randonly selected as training point or test point
"Benzoic acid, 2-hydroxy-3-methyl-",418.55,1,Cc1cccc(C(=O)O)c1O,le15,0,0,0,1,randonly selected as training point or test point
4-methoxybenzoic acid,388.61,1,COc1ccc(C(=O)O)cc1,le15,0,0,0,1,randonly selected as training point or test point
"Benzoic acid, 2-hydroxy-, methyl ester",359.95,1,COC(=O)c1ccccc1O,le15,0,0,0,1,randonly selected as training point or test point
"Benzaldehyde, 4-hydroxy-3-methoxy-",390.75,1,COc1cc(C=O)ccc1O,le15,0,0,0,0,randonly selected as training point or test point
"Acetic acid, phenoxy-",388.25,1,O=C(O)COc1ccccc1,le15,0,0,0,1,randonly selected as training point or test point
"m-Anisaldehyde, 2-hydroxy- (8CI)",367.15,1,COc1cccc(C=O)c1O,le15,0,0,0,0,randonly selected as training point or test point
2-(2-hydroxyphenyl)acetic acid,435.75,1,O=C(O)Cc1ccccc1O,le15,0,0,0,1,randonly selected as training point or test point
"p-Anisaldehyde, 3-hydroxy- (8CI)",393.05,1,COc1ccc(C=O)cc1O,le15,0,0,0,0,randonly selected as training point or test point
2-hydroxy-5-methoxybenzaldehyde,381.25,1,COc1ccc(O)c(C=O)c1,le15,0,0,0,0,randonly selected as training point or test point
methyl 3-hydroxybenzoate,399.85,1,COC(=O)c1cccc(O)c1,le15,0,0,0,0,randonly selected as training point or test point
"Ethanone, 1-(2,4-dihydroxyphenyl)-",434.25,1,CC(=O)c1ccc(O)cc1O,le15,0,0,0,0,randonly selected as training point or test point
Xylitol,535.05,1,OC[C@H](O)[C@@H](O)[C@H](O)CO,le15,0,0,0,0,randonly selected as training point or test point
"Benzenamine, 4-methyl-2-nitro-",410.15,1,Cc1ccc(N)c([N+](=O)[O-])c1,le15,0,0,0,0,randonly selected as training point or test point
"Benzenamine, 2-methyl-4-nitro-",430.35,1,Cc1cc([N+](=O)[O-])ccc1N,le15,0,0,0,0,randonly selected as training point or test point
"Benzenamine, 4-methyl-3-nitro-",412.05,1,Cc1ccc(N)cc1[N+](=O)[O-],le15,0,0,0,0,randonly selected as training point or test point
"Benzenamine, 2-methyl-6-nitro- (9CI)",409.25,1,Cc1cccc([N+](=O)[O-])c1N,le15,0,0,0,0,randonly selected as training point or test point
5-Methyl-o-nitroaniline,415.95,1,Cc1ccc([N+](=O)[O-])c(N)c1,le15,0,0,0,0,randonly selected as training point or test point
"Benzenamine, 2-methyl-3-nitro- (9CI)",411.25,1,Cc1c(N)cccc1[N+](=O)[O-],le15,0,0,0,0,randonly selected as training point or test point
"Benzoic acid, 4-hydrazinyl-",455.05,1,NNc1ccc(C(=O)O)cc1,le15,0,0,0,1,randonly selected as training point or test point
"Benzenamine, 2-methyl-5-nitro-",426.15,1,Cc1ccc([N+](=O)[O-])cc1N,le15,0,0,0,0,randonly selected as training point or test point
"Aniline, N-methyl-p-nitro- (8CI)",402.65,1,CNc1ccc([N+](=O)[O-])cc1,le15,0,0,0,0,randonly selected as training point or test point
"6H-Purine-6-thione, 1,7-dihydro- (9CI)",528.55,1,S=c1[nH]cnc2nc[nH]c12,le15,0,0,0,0,randonly selected as training point or test point
"Hydroperoxide, alpha,alpha-dimethylbenzyl-",329.25,1,CC(C)(OO)c1ccccc1,le15,0,0,0,0,randonly selected as training point or test point
"Ethanol, 2-(phenylmethoxy)-",383.15,1,OCCOCc1ccccc1,le15,0,0,0,0,randonly selected as training point or test point
"1,4-Benzenediol, 2,3,5-trimethyl-",464.15,1,Cc1cc(O)c(C)c(C)c1O,le15,0,0,0,0,randonly selected as training point or test point
4-ethyl-2-methoxyphenol,380.85,1,CCc1ccc(O)c(OC)c1,le15,0,0,0,0,randonly selected as training point or test point
"Indan, 1,2:5,6-diepoxyhexahydro-",391.45,1,C1C2CC3OC3C2CC2OC12,le15,0,0,0,0,randonly selected as training point or test point
"1,3-dimethoxy-5-methylbenzene",374.85,1,COc1cc(C)cc(OC)c1,le15,0,0,0,0,randonly selected as training point or test point
"1,2-dimethoxy-3-methylbenzene",340.75,1,COc1cccc(C)c1OC,le15,0,0,0,0,randonly selected as training point or test point
"2,6-Dimethoxytoluene",369.85,1,COc1cccc(OC)c1C,le15,0,0,0,0,randonly selected as training point or test point
1-(2-methoxyphenyl)ethanol,383.95,1,COc1ccccc1C(C)O,le15,0,0,0,0,randonly selected as training point or test point
"1,2-dimethoxy-4-methylbenzene",358.15,1,COc1ccc(C)cc1OC,le15,0,0,0,0,randonly selected as training point or test point
"4-propan-2-ylbenzene-1,2-diol",402.35,1,CC(C)c1ccc(O)c(O)c1,le15,0,0,0,0,randonly selected as training point or test point
"1-Propanol, 2-phenoxy-",377.55,1,CC(CO)Oc1ccccc1,le15,0,0,0,0,randonly selected as training point or test point
2-propoxyphenol,370.35,1,CCCOc1ccccc1O,le15,0,0,0,0,randonly selected as training point or test point
"4(1H)-Pyrimidinone, 6-methyl-2-(1-methylethyl)-",366.35,1,Cc1cc(=O)nc(C(C)C)[nH]1,le15,0,0,0,0,randonly selected as training point or test point
"Toluene-2,5-diamine, 4-methoxy-",433.45,1,COc1cc(N)c(C)cc1N,le15,0,0,0,0,randonly selected as training point or test point
"1,3-Benzenediamine, 4-ethoxy- (9CI)",439.55,1,CCOc1ccc(N)cc1N,le15,0,0,0,0,randonly selected as training point or test point
"4-ethoxybenzene-1,2-diamine",436.95,1,CCOc1ccc(N)c(N)c1,le15,0,0,0,0,randonly selected as training point or test point
"Urea, 1-phenyl-2-thio-",388.25,1,NC(=S)Nc1ccccc1,le15,0,0,0,0,randonly selected as training point or test point
"Methanesulfonic acid, butyl ester",375.15,1,CCCCOS(C)(=O)=O,le15,0,0,0,1,randonly selected as training point or test point
tetramethyl silicate,302.05,1,CO[Si](OC)(OC)OC,le15,1,1,0,0,randonly selected as training point or test point
"Bicyclo(2.2.1)heptan-2-one, 1,7,7-trimethyl-",337.55,1,CC12CCC(CC1=O)C2(C)C,le15,0,0,0,0,randonly selected as training point or test point
"2-Cyclohexen-1-one, 3-methyl-6-(1-methylethyl)-",364.05,1,CC1=CC(=O)C(C(C)C)CC1,le15,0,0,0,0,randonly selected as training point or test point
"2-Cyclohexen-1-ol, 2-methyl-5-(1-methylethenyl)-",364.35,1,C=C(C)C1CC=C(C)C(O)C1,le15,0,0,0,0,randonly selected as training point or test point
"Bicyclo(2.2.1)heptan-2-one, 1,7,7-trimethyl-, (1S,4S)-",337.55,1,CC1(C)[C@H]2CC[C@]1(C)C(=O)C2,le15,0,0,0,0,randonly selected as training point or test point
"(1S,3R,5S)-2-methylidene-5-propan-2-ylbicyclo[3.1.0]hexan-3-ol",356.85,1,C=C1[C@H]2C[C@@]2(C(C)C)C[C@H]1O,le15,0,0,0,0,randonly selected as training point or test point
"6,6-Dimethyl-2-(hydroxymethyl)bicyclo[3.1.1]hept-2-ene",362.55,1,CC1(C)C2CC=C(CO)C1C2,le15,0,0,0,0,randonly selected as training point or test point
"Bicyclo(3.1.0)hexan-3-one, 4-methyl-1-(1-methylethyl)-, (1S,4R,5R)-",337.55,1,CC(C)[C@]12CC(=O)[C@H](C)[C@H]1C2,le15,0,0,0,0,randonly selected as training point or test point
"Bicyclo(2.2.1)heptan-2-one, 1,3,3-trimethyl-",325.95,1,CC12CCC(C1)C(C)(C)C2=O,le15,0,0,0,0,randonly selected as training point or test point
"2H-Pyran, 3,6-dihydro-4-methyl-2-(2-methylpropenyl)- (7CI)",343.95,1,CC(C)=CC1CC(C)=CCO1,le15,0,0,0,0,randonly selected as training point or test point
"4,7,7-trimethyl-6-oxabicyclo[3.2.1]oct-3-ene",336.35,1,CC1=CCC2CC1OC2(C)C,le15,0,0,0,0,randonly selected as training point or test point
"Cyclopentanone, 2-(3-methyl-2-buten-1-yl)-",353.65,1,CC(C)=CCC1CCCC1=O,le15,0,0,0,0,randonly selected as training point or test point
"Bicyclo(2.2.1)heptan-2-one, 1,3,3-trimethyl-, (1S,4R)-",325.95,1,CC1(C)C(=O)[C@@]2(C)CC[C@@H]1C2,le15,0,0,0,0,randonly selected as training point or test point
2-cyclopentylcyclopentan-1-one,363.45,1,O=C1CCCC1C1CCCC1,le15,0,0,0,0,randonly selected as training point or test point
"Cyclohexanone, 2-methyl-5-(1-methylethenyl)-",354.25,1,C=C(C)C1CCC(C)C(=O)C1,le15,0,0,0,0,randonly selected as training point or test point
"4,7,7-trimethylbicyclo[2.2.1]heptan-2-one",342.45,1,CC12CCC(C(=O)C1)C2(C)C,le15,0,0,0,0,randonly selected as training point or test point
4-propan-2-ylcyclohexene-1-carbaldehyde,356.75,1,CC(C)C1CC=C(C=O)CC1,le15,0,0,0,0,randonly selected as training point or test point
"2,6-Octadienal, 3,7-dimethyl-, (2E)-",374.85,1,CC(C)=CCC/C(C)=C/C=O,le15,0,0,0,0,randonly selected as training point or test point
"1-Cyclohexene-1-methanol, 4-(1-methylethenyl)-",372.75,1,C=C(C)C1CC=C(CO)CC1,le15,0,0,0,0,randonly selected as training point or test point
"Spiro(bicyclo(3.1.1)heptane-2,2'-oxirane), 6,6-dimethyl-",339.15,1,CC1(C)C2CCC3(CO3)C1C2,le15,0,0,0,0,randonly selected as training point or test point
"(1R,4S,5S)-4,6,6-trimethylbicyclo[3.1.1]heptan-3-one",345.95,1,C[C@@H]1C(=O)C[C@H]2C[C@@H]1C2(C)C,le15,0,0,0,0,randonly selected as training point or test point
Camphor,339.0,1,CC12CCC(CC1=O)C2(C)C,le15,0,0,0,0,randonly selected as training point or test point
1-ethylsulfanyl-4-methylbenzene,359.15,1,CCSc1ccc(C)cc1,le15,0,0,0,0,randonly selected as training point or test point
propan-2-ylsulfanylbenzene,356.35,1,CC(C)Sc1ccccc1,le15,0,0,0,0,randonly selected as training point or test point
Spiro(5.5)undecane,344.95,1,C1CCC2(CC1)CCCCC2,le15,0,0,0,0,randonly selected as training point or test point
undec-5-yne,338.75,1,CCCCC#CCCCCC,le15,0,0,0,0,randonly selected as training point or test point
undec-4-yne,338.75,1,CCCC#CCCCCCC,le15,0,0,0,0,randonly selected as training point or test point
1undecyne,338.0,1,C#CCCCCCCCCC,le15,0,0,0,0,randonly selected as training point or test point
"Benzonitrile, 2-amino-5-chloro-",402.85,1,N#Cc1cc(Cl)ccc1N,le15,0,0,0,0,randonly selected as training point or test point
"Benzene, 1-chloro-4-(1-methylethenyl)-",347.039,1,C=C(C)c1ccc(Cl)cc1,le15,0,0,0,0,randonly selected as training point or test point
[(E)-3-chloroprop-2-enyl]benzene,562.05,1,Cl/C=C/Cc1ccccc1,le15,0,0,0,0,randonly selected as training point or test point
"2-chloro-1,1-diethoxyethane",302.55,1,CCOC(CCl)OCC,le15,0,0,0,0,randonly selected as training point or test point
"2-Butenedioyl dichloride, (2E)-",346.15,1,O=C(Cl)/C=C/C(=O)Cl,le15,0,0,0,0,randonly selected as training point or test point
methyl 2-bromoacetate,335.95,1,COC(=O)CBr,le15,0,0,0,0,randonly selected as training point or test point
"Propanoic acid, 3-bromo-",371.85,1,O=C(O)CCBr,le15,0,0,0,1,randonly selected as training point or test point
2-bromopropanoic acid,349.45,1,CC(Br)C(=O)O,le15,0,0,0,1,randonly selected as training point or test point
1-bromo-2-ethoxyethane,294.15,1,CCOCCBr,le15,0,0,0,0,randonly selected as training point or test point
"2,5-dichlorothiophene",332.55,1,Clc1ccc(Cl)s1,le15,0,0,0,0,randonly selected as training point or test point
"trans-1,2-Dichlorocyclohexane",339.25,1,Cl[C@@H]1CCCC[C@H]1Cl,le15,0,0,0,0,randonly selected as training point or test point
"1,1-dichlorocyclohexane",339.15,1,ClC1(Cl)CCCCC1,le15,0,0,0,0,randonly selected as training point or test point
"(1R,2S)-1,2-dichlorocyclohexane",339.25,1,Cl[C@H]1CCCC[C@H]1Cl,le15,0,0,0,0,randonly selected as training point or test point
"Benzoic acid, 5-amino-2-hydroxy-",471.25,1,Nc1ccc(O)c(C(=O)O)c1,le15,0,0,0,1,randonly selected as training point or test point
"Benzene, 1-methoxy-4-nitro-",407.75,1,COc1ccc([N+](=O)[O-])cc1,le15,0,0,0,0,randonly selected as training point or test point
"Phenol, 4-methyl-2-nitro-",381.15,1,Cc1ccc(O)c([N+](=O)[O-])c1,le15,0,0,0,0,randonly selected as training point or test point
"Anthranilic acid, 3-hydroxy- (8CI)",442.75,1,Nc1c(O)cccc1C(=O)O,le15,0,0,0,1,randonly selected as training point or test point
"Benzenemethanol, 2-nitro- (9CI)",404.25,1,O=[N+]([O-])c1ccccc1CO,le15,0,0,0,0,randonly selected as training point or test point
"Benzenemethanol, 3-nitro-",419.35,1,O=[N+]([O-])c1cccc(CO)c1,le15,0,0,0,0,randonly selected as training point or test point
"Benzenemethanol, 4-nitro-",421.25,1,O=[N+]([O-])c1ccc(CO)cc1,le15,0,0,0,0,randonly selected as training point or test point
"Phenol, 5-methyl-2-nitro-",382.15,1,Cc1ccc([N+](=O)[O-])c(O)c1,le15,0,0,0,0,randonly selected as training point or test point
3-Nitro-p-cresol,398.35,1,Cc1ccc(O)cc1[N+](=O)[O-],le15,0,0,0,0,randonly selected as training point or test point
"Phenol, 3-methyl-4-nitro-",383.15,1,Cc1cc(O)ccc1[N+](=O)[O-],le15,0,0,0,0,randonly selected as training point or test point
"Phenol, 3-methyl-2-nitro- (9CI)",380.15,1,Cc1cccc(O)c1[N+](=O)[O-],le15,0,0,0,0,randonly selected as training point or test point
"Phenol, 2-methyl-5-nitro-",407.35,1,Cc1ccc([N+](=O)[O-])cc1O,le15,0,0,0,0,randonly selected as training point or test point
3-Nitro-o-cresol,394.95,1,Cc1c(O)cccc1[N+](=O)[O-],le15,0,0,0,0,randonly selected as training point or test point
"Benzene, 1-methoxy-2-nitro-",415.15,1,COc1ccccc1[N+](=O)[O-],le15,0,0,0,0,randonly selected as training point or test point
"1,2-Benzenediamine, 4-nitro-",481.65,1,Nc1ccc([N+](=O)[O-])cc1N,le15,0,0,0,0,randonly selected as training point or test point
"Hydrazine, (4-nitrophenyl)-",434.95,1,NNc1ccc([N+](=O)[O-])cc1,le15,0,0,0,0,randonly selected as training point or test point
"1,4-Benzenediamine, 2-nitro-",460.05,1,Nc1ccc(N)c([N+](=O)[O-])c1,le15,0,0,0,0,randonly selected as training point or test point