compound,flashpoint,pure substance,smiles,source,is_silicon,is_metallic,is_tin,is_acid,data type
N-sec-butylaniline,366.0,1,C(C)(CC)NC1=CC=CC=C1,carroll11,0,0,0,0,randonly selected as training point or test point
N-tert-butylaniline,361.0,1,C(C)(C)(C)NC1=CC=CC=C1,carroll11,0,0,0,0,randonly selected as training point or test point
4-sec-butylaniline,381.0,1,C(C)(CC)C1=CC=C(N)C=C1,carroll11,0,0,0,0,randonly selected as training point or test point
2-sec-butylaniline,375.0,1,C(C)(CC)C1=C(N)C=CC=C1,carroll11,0,0,0,0,randonly selected as training point or test point
2-tert-butylphenol,375.0,1,C(C)(C)(C)C1=C(C=CC=C1)O,carroll11,0,0,0,0,randonly selected as training point or test point
3-phenylpropylacetate,386.0,1,C1(=CC=CC=C1)CCCOC(C)=O,carroll11,0,0,0,0,randonly selected as training point or test point
"2,6-diisopropylaniline",396.0,1,C(C)(C)C1=C(N)C(=CC=C1)C(C)C,carroll11,0,0,0,0,randonly selected as training point or test point
allylphenylether,336.0,1,C(C=C)OC1=CC=CC=C1,carroll11,0,0,0,0,randonly selected as training point or test point
divinylether,226.0,1,C(=C)OC=C,carroll11,0,0,0,0,randonly selected as training point or test point
furan,237.0,1,O1C=CC=C1,carroll11,0,0,0,0,randonly selected as training point or test point
2-methylfuran,247.0,1,CC=1OC=CC1,carroll11,0,0,0,0,randonly selected as training point or test point
thiophene,264.0,1,S1C=CC=C1,carroll11,0,0,0,0,randonly selected as training point or test point
2-methylthiophene,281.0,1,CC=1SC=CC1,carroll11,0,0,0,0,randonly selected as training point or test point
2-ethylthiophene,294.0,1,C(C)C=1SC=CC1,carroll11,0,0,0,0,randonly selected as training point or test point
2-propylthiophene,305.0,1,C(CC)C=1SC=CC1,carroll11,0,0,0,0,randonly selected as training point or test point
2-tert-butylfuran,280.0,1,C(C)(C)(C)C=1OC=CC1,carroll11,0,0,0,0,randonly selected as training point or test point
3-methylthiophene,284.0,1,CC1=CSC=C1,carroll11,0,0,0,0,randonly selected as training point or test point
allylmethacrylate,310.0,1,C(C=C)OC(C(=C)C)=O,carroll11,0,0,0,0,randonly selected as training point or test point
geranylformate,368.0,1,C(\C=C(/C)\CCC=C(C)C)C(=O)[O-],carroll11,0,0,0,0,randonly selected as training point or test point
geranylacetate,377.0,1,C(\C=C(/C)\CCC=C(C)C)CC(=O)[O-],carroll11,0,0,0,0,randonly selected as training point or test point
4-propenylanisole,369.0,1,C(=CC)C1=CC=C(C=C1)OC,carroll11,0,0,0,0,randonly selected as training point or test point
diethylfumarate,366.0,1,C(C)\C(=C(/C(=O)[O-])\CC)\C(=O)[O-],carroll11,0,0,0,0,randonly selected as training point or test point
ethylcinnamate,408.0,1,C(C)OC(C=CC1=CC=CC=C1)=O,carroll11,0,0,0,0,randonly selected as training point or test point
1-methoxy-2-propanol,304.0,1,COCC(C)O,carroll11,0,0,0,0,randonly selected as training point or test point
2-methoxyethanol,311.0,1,COCCO,carroll11,0,0,0,0,randonly selected as training point or test point
2-dimethylaminoethanol,314.0,1,CN(CCO)C,carroll11,0,0,0,0,randonly selected as training point or test point
2-ethoxyethanol,315.0,1,C(C)OCCO,carroll11,0,0,0,0,randonly selected as training point or test point
2-isopropoxyethanol,316.0,1,C(C)(C)OCCO,carroll11,0,0,0,0,randonly selected as training point or test point
"2-bromo-1,1-dimethoxyethane",324.0,1,BrCC(OC)OC,carroll11,0,0,0,0,randonly selected as training point or test point
bis(2-methoxyethyl)amine,331.0,1,COCCNCCOC,carroll11,0,0,0,0,randonly selected as training point or test point
2-butoxyethanol,335.0,1,C(CCC)OCCO,carroll11,0,0,0,0,randonly selected as training point or test point
"1,3-dichlorobenzene",336.0,1,ClC1=CC(=CC=C1)Cl,carroll11,0,0,0,0,randonly selected as training point or test point
2-chloropyridine,337.0,1,ClC1=NC=CC=C1,carroll11,0,0,0,0,randonly selected as training point or test point
"1,2-dichlorobenzene",341.0,1,ClC1=C(C=CC=C1)Cl,carroll11,0,0,0,0,randonly selected as training point or test point
2-amino-2-methyl-1-propanol,341.0,1,NC(CO)(C)C,carroll11,0,0,0,0,randonly selected as training point or test point
2-(methylamino)ethanol,345.0,1,CNCCO,carroll11,0,0,0,0,randonly selected as training point or test point
1-amino-2-propanol,340.0,1,NCC(C)O,carroll11,0,0,0,0,randonly selected as training point or test point
2-chlorophenol,345.0,1,ClC1=C(C=CC=C1)O,carroll11,0,0,0,0,randonly selected as training point or test point
(2-hydroxyethyl)propylamine,351.0,1,OCCNCCC,carroll11,0,0,0,0,randonly selected as training point or test point
"1,2-dimethoxybenzene",360.0,1,COC1=C(C=CC=C1)OC,carroll11,0,0,0,0,randonly selected as training point or test point
"2,3-dichloro-1-propanol",366.0,1,ClC(CO)CCl,carroll11,0,0,0,0,randonly selected as training point or test point
diphenylether,388.0,1,C1(=CC=CC=C1)OC1=CC=CC=C1,carroll11,0,0,0,0,randonly selected as training point or test point
dimethylphthalate,423.0,1,COC(C=1C(C(=O)OC)=CC=CC1)=O,carroll11,0,0,0,0,randonly selected as training point or test point
diisobutylphthalate,458.0,1,C(C(C)C)OC(C=1C(C(=O)OCC(C)C)=CC=CC1)=O,carroll11,0,0,0,0,randonly selected as training point or test point
diethylphthalate,433.0,1,C(C)OC(C=1C(C(=O)OCC)=CC=CC1)=O,carroll11,0,0,0,0,randonly selected as training point or test point
furfural,331.0,1,C(C1=CC=CO1)=O,carroll11,0,0,0,0,randonly selected as training point or test point
furfurylalcohol,348.0,1,C(C1=CC=CO1)O,carroll11,0,0,0,0,randonly selected as training point or test point
furfurylacetate,338.0,1,C(C1=CC=CO1)CC(=O)[O-],carroll11,0,0,0,0,randonly selected as training point or test point
furfurylpropanoate,355.0,1,C(C1=CC=CO1)OC(CC)=O,carroll11,0,0,0,0,randonly selected as training point or test point
"2,5-dimethoxy-2,5-dihydrofuran",320.0,1,COC1OC(C=C1)OC,carroll11,0,0,0,0,randonly selected as training point or test point
methylsalicylate,372.0,1,COC=1C(C(=O)[O-])=CC=CC1,carroll11,0,0,0,0,randonly selected as training point or test point
ethylsalicylate,380.0,1,C(C)OC=1C(C(=O)[O-])=CC=CC1,carroll11,0,0,0,0,randonly selected as training point or test point
2-phenylethanol,375.0,1,C1(=CC=CC=C1)CCO,carroll11,0,0,0,0,randonly selected as training point or test point
diethyleneglycol,397.0,1,C(COCCO)O,carroll11,0,0,0,0,randonly selected as training point or test point
N-methyldiethanolamine,410.0,1,CN(CCO)CCO,carroll11,0,0,0,0,randonly selected as training point or test point
3-methylfuran,251.0,1,CC1=COC=C1,carroll11,0,0,0,0,randonly selected as training point or test point
2-ethylfuran,271.0,1,C(C)C=1OC=CC1,carroll11,0,0,0,0,randonly selected as training point or test point
3-ethylthiophene,296.0,1,C(C)C1=CSC=C1,carroll11,0,0,0,0,randonly selected as training point or test point
cyclohexylmethacrylate,355.0,1,C1(CCCCC1)OC(C(=C)C)=O,carroll11,0,0,0,0,randonly selected as training point or test point
cyclohexylacrylate,341.0,1,C1(CCCCC1)OC(C=C)=O,carroll11,0,0,0,0,randonly selected as training point or test point
1-phenyl-3-pentanone,376.0,1,C1(=CC=CC=C1)CCC(CC)=O,carroll11,0,0,0,0,randonly selected as training point or test point
2-propylfuran,288.0,1,C(CC)C=1OC=CC1,carroll11,0,0,0,0,randonly selected as training point or test point
isobutylbenzoate,375.0,1,C(C(C)C)OC(C1=CC=CC=C1)=O,carroll11,0,0,0,0,randonly selected as training point or test point
10-chloro-3-decyne,359.0,1,ClCCCCCCC#CCC,carroll11,0,0,0,0,randonly selected as training point or test point
1-chloro-4-decyne,360.0,1,ClCCCC#CCCCCC,carroll11,0,0,0,0,randonly selected as training point or test point
"2-chloro-1,3-butadiene",253.0,1,ClC(=C)C=C,carroll11,0,0,0,0,randonly selected as training point or test point
2-isobutoxyethanol,324.0,1,C(C(C)C)OCCO,carroll11,0,0,0,0,randonly selected as training point or test point
Trichlorosilane,245.15,1,Cl[SiH](Cl)Cl,chen14,1,1,0,0,randonly selected as training point or test point
Methyltrichlorosilane,276.15,1,C[Si](Cl)(Cl)Cl,chen14,1,1,0,0,randonly selected as training point or test point
Vinyltrichlorosilane,294.15,1,C(=C)[Si](Cl)(Cl)Cl,chen14,1,1,0,0,randonly selected as training point or test point
Dichloromethylmethyldichlorosilane,301.15,1,ClC(Cl)[Si](Cl)(Cl)C,chen14,1,1,0,0,randonly selected as training point or test point
Ethyltrichlorosilane,263.15,1,C(C)[Si](Cl)(Cl)Cl,chen14,1,1,0,0,randonly selected as training point or test point
Dimethylchlorosilane,245.15,1,C[SiH](Cl)C,chen14,1,1,0,0,randonly selected as training point or test point
Ethylsilane,213.15,1,C(C)[SiH3],chen14,1,1,0,0,randonly selected as training point or test point
"Trichloro(3,3,3-trifluoropropyl)silane",288.15,1,Cl[Si](CCC(F)(F)F)(Cl)Cl,chen14,1,1,0,0,randonly selected as training point or test point
Allyltrichlorosilane,304.15,1,C(C=C)[Si](Cl)(Cl)Cl,chen14,1,1,0,0,randonly selected as training point or test point
3-Chloropropyltrichlorosilane,357.15,1,ClCCC[Si](Cl)(Cl)Cl,chen14,1,1,0,0,randonly selected as training point or test point
n-Propyltrichlorosilane,310.15,1,C(CC)[Si](Cl)(Cl)Cl,chen14,1,1,0,0,randonly selected as training point or test point
Chloromethyldimethylchlorosilane,295.15,1,ClC[Si](Cl)(C)C,chen14,1,1,0,0,randonly selected as training point or test point
Trimethyl bromosilane,270.15,1,C[Si](Br)(C)C,chen14,1,1,0,0,randonly selected as training point or test point
Trimethylchlorosilane,255.15,1,C[Si](Cl)(C)C,chen14,1,1,0,0,randonly selected as training point or test point
Trimethylfluorosilane,238.15,1,C[Si](F)(C)C,chen14,1,1,0,0,randonly selected as training point or test point
Trimethoxysilane,264.15,1,CO[SiH](OC)OC,chen14,1,1,0,0,randonly selected as training point or test point
2-Cyanoethylmethyldichlorosilane,333.15,1,C(#N)CC[Si](Cl)(Cl)C,chen14,1,1,0,0,randonly selected as training point or test point
Allylmethyldichlorosilane,300.15,1,C(C=C)C[SiH](Cl)Cl,chen14,1,1,0,0,randonly selected as training point or test point
t-Butyltrichlorosilane,294.15,1,C(C)(C)(C)[Si](Cl)(Cl)Cl,chen14,1,1,0,0,randonly selected as training point or test point
Isobutyltrichlorosilane,310.15,1,C(C(C)C)[Si](Cl)(Cl)Cl,chen14,1,1,0,0,randonly selected as training point or test point
n-Butyltrichlorosilane,327.15,1,C(CCC)[Si](Cl)(Cl)Cl,chen14,1,1,0,0,randonly selected as training point or test point
Trimethylsilylisothiocyanate,308.15,1,C[Si](C)(C)N=C=S,chen14,1,1,0,0,randonly selected as training point or test point
n-Propylmethyldichlorosilane,300.15,1,C(CC)[Si](Cl)(Cl)C,chen14,1,1,0,0,randonly selected as training point or test point
Bromomethyltrimethylsilane,289.15,1,BrC[Si](C)(C)C,chen14,1,1,0,0,randonly selected as training point or test point
ETHYLDIMETHYLCHLOROSILANE,269.15,1,C(C)[Si](Cl)(C)C,chen14,1,1,0,0,randonly selected as training point or test point
Methoxytrimethylsilane,243.15,1,CO[Si](C)(C)C,chen14,1,1,0,0,randonly selected as training point or test point
Dimethyldimethoxysilane,265.15,1,C[Si](OC)(OC)C,chen14,1,1,0,0,randonly selected as training point or test point
Methyltrimethoxysilane,284.15,1,C[Si](OC)(OC)OC,chen14,1,1,0,0,randonly selected as training point or test point
Tetramethoxysilane,294.15,1,CO[Si](OC)(OC)OC,chen14,1,1,0,0,randonly selected as training point or test point
Tetramethylsilane,245.15,1,C[Si](C)(C)C,chen14,1,1,0,0,randonly selected as training point or test point
Diethylsilane,253.15,1,C(C)[SiH2]CC,chen14,1,1,0,0,randonly selected as training point or test point
"(N,N-Dimethylamino)dimethylsilane",260.15,1,CN(C)[SiH](C)C,chen14,1,1,0,0,randonly selected as training point or test point
Tetraisocyanatosilane,323.15,1,N(=C=O)[Si](N=C=O)(N=C=O)N=C=O,chen14,1,1,0,0,randonly selected as training point or test point
Cyclopentyltrichlorosilane,350.15,1,C1(CCCC1)[Si](Cl)(Cl)Cl,chen14,1,1,0,0,randonly selected as training point or test point
Trimethylsilyltrifluoroacetate,273.15,1,C[Si](C)(C)OC(C(F)(F)F)=O,chen14,1,1,0,0,randonly selected as training point or test point
Cyclopentyldichlorosilane,316.15,1,C1(CCCC1)[SiH](Cl)Cl,chen14,1,1,0,0,randonly selected as training point or test point
3-Chloro-2-methylpropylmethyldichlorosilane,363.15,1,ClCC(C[Si](Cl)(Cl)C)C,chen14,1,1,0,0,randonly selected as training point or test point
Methylvinyldimethoxysilane,277.15,1,CC=C[SiH](OC)OC,chen14,1,1,0,0,randonly selected as training point or test point
Vinyltrimethoxysilane,296.15,1,C(=C)[Si](OC)(OC)OC,chen14,1,1,0,0,randonly selected as training point or test point
Trimethylvinylsilane,239.15,1,CC(=C(C)C)[SiH3],chen14,1,1,0,0,randonly selected as training point or test point
Diethylmethylchlorosilane,288.15,1,C(C)[Si](Cl)(C)CC,chen14,1,1,0,0,randonly selected as training point or test point
Chloromethyldimethylethoxysilane,299.15,1,ClC[Si](OCC)(C)C,chen14,1,1,0,0,randonly selected as training point or test point
Ethoxytrimethylsilane,246.15,1,C(C)O[Si](C)(C)C,chen14,1,1,0,0,randonly selected as training point or test point
Ethyltrimethoxysilane,300.15,1,C(C)[Si](OC)(OC)OC,chen14,1,1,0,0,randonly selected as training point or test point
"(N,N-Dimethylamino)trimethylsilane",254.5,1,CN(C)[Si](C)(C)C,chen14,1,1,0,0,randonly selected as training point or test point
Pentamethyldisiloxane,254.15,1,C[SiH](O[Si](C)(C)C)C,chen14,1,1,0,0,randonly selected as training point or test point
Phenylsilane,281.15,1,C1(=CC=CC=C1)[SiH3],chen14,1,1,0,0,randonly selected as training point or test point
1-Hexenyltrichlorosilane,333.15,1,C(=CCCCC)[Si](Cl)(Cl)Cl,chen14,1,1,0,0,randonly selected as training point or test point
Cyclohexyltrichlorosilane,358.15,1,C1(CCCCC1)[Si](Cl)(Cl)Cl,chen14,1,1,0,0,randonly selected as training point or test point
Bis(chloromethyl)tetramethyldisiloxane,346.15,1,ClC[Si](O[Si](C)(C)C)(C)CCl,chen14,1,1,0,0,randonly selected as training point or test point
Propargyloxytrimethylsilane,300.15,1,C(C#C)O[Si](C)(C)C,chen14,1,1,0,0,randonly selected as training point or test point
Divinyldimethylsilane,281.15,1,C(=C)[Si](C)(C)C=C,chen14,1,1,0,0,randonly selected as training point or test point
n-Hexyltrichlorosilane,358.15,1,C(CCCCC)[Si](Cl)(Cl)Cl,chen14,1,1,0,0,randonly selected as training point or test point
Hexyldichlorosilane,337.15,1,C(CCCCC)[SiH](Cl)Cl,chen14,1,1,0,0,randonly selected as training point or test point
"1,1 -Dimethyl-1-sila-2-oxacyclohexane",287.15,1,C[Si]1(OCCCC1)C,chen14,1,1,0,0,randonly selected as training point or test point
Acetoxymethyltrimethylsilane,293.15,1,C(C)(=O)OC[Si](C)(C)C,chen14,1,1,0,0,randonly selected as training point or test point
Allyltrimethylsilane,280.15,1,C(C=C)[Si](C)(C)C,chen14,1,1,0,0,randonly selected as training point or test point
Triethylchlorosilane,303.15,1,C(C)[Si](Cl)(CC)CC,chen14,1,1,0,0,randonly selected as training point or test point
t-Butyldimethylchlorosilane,295.15,1,C(C)(C)(C)[Si](Cl)(C)C,chen14,1,1,0,0,randonly selected as training point or test point
3-Chloropropylmethyldimethoxysilane,318.15,1,ClCCC[Si](OC)(OC)C,chen14,1,1,0,0,randonly selected as training point or test point
Trimethyl-n-propoxysilane,283.15,1,C[Si](OCCC)(C)C,chen14,1,1,0,0,randonly selected as training point or test point
t-Butyldimethylsilanol,318.15,1,C(C)(C)(C)[Si](O)(C)C,chen14,1,1,0,0,randonly selected as training point or test point
Dimethyldiethoxysilane,284.15,1,C[Si](OCC)(OCC)C,chen14,1,1,0,0,randonly selected as training point or test point
Triethylsilane,270.15,1,C(C)[SiH](CC)CC,chen14,1,1,0,0,randonly selected as training point or test point
Hexylsilane,285.15,1,C(CCCCC)[SiH3],chen14,1,1,0,0,randonly selected as training point or test point
t-Butyld imethyl silane,251.15,1,C(C)(C)(C)[SiH](C)C,chen14,1,1,0,0,randonly selected as training point or test point
Bis(dimethylamino)dimethylsilane,266.15,1,CN(C)[Si](C)(C)N(C)C,chen14,1,1,0,0,randonly selected as training point or test point
Hexamethylcyclotrisiloxane,305.15,1,C[Si]1(O[Si](O[Si](O1)(C)C)(C)C)C,chen14,1,1,0,0,randonly selected as training point or test point
Hexamethyldisilthiane,299.15,1,C[Si](S[Si](C)(C)C)(C)C,chen14,1,1,0,0,randonly selected as training point or test point
Hexamethyldisilazane,281.15,1,C[Si](N[Si](C)(C)C)(C)C,chen14,1,1,0,0,randonly selected as training point or test point
Tris(dimethylamino)silane,298.15,1,CN(C)[SiH](N(C)C)N(C)C,chen14,1,1,0,0,randonly selected as training point or test point
Hexamethyltrisiloxane,293.15,1,C[Si](O[SiH2]O[Si](C)(C)C)(C)C,chen14,1,1,0,0,randonly selected as training point or test point
Phenylmethyldichlorosilane,340.15,1,C1(=CC=CC=C1)C[SiH](Cl)Cl,chen14,1,1,0,0,randonly selected as training point or test point
Phenylmethylchlorosilane,355.15,1,C1(=CC=CC=C1)C[SiH2]Cl,chen14,1,1,0,0,randonly selected as training point or test point
Methyltriacetoxysilane,358.15,1,C[Si](OC(C)=O)(OC(C)=O)OC(C)=O,chen14,1,1,0,0,randonly selected as training point or test point
Trivinylmethylsilane,288.15,1,C(=C)C(C=C)(C=C)[SiH3],chen14,1,1,0,0,randonly selected as training point or test point
Cyclohexylmethyldichlorosilane,355.15,1,C1(CCCCC1)C[SiH](Cl)Cl,chen14,1,1,0,0,randonly selected as training point or test point
"1-(Trimethylsiloxy)-1,3-butadiene",298.15,1,C[Si](OC=CC=C)(C)C,chen14,1,1,0,0,randonly selected as training point or test point
2-Chloromethyl-3-trimethylsilyl-1-propene,316.15,1,ClCC(=C)C[Si](C)(C)C,chen14,1,1,0,0,randonly selected as training point or test point
n-Heptyltrichlorosilane,337.15,1,C(CCCCCC)[Si](Cl)(Cl)Cl,chen14,1,1,0,0,randonly selected as training point or test point
n-Hexylmethyldichlorosilane,358.15,1,C(CCCCC)[Si](Cl)(Cl)C,chen14,1,1,0,0,randonly selected as training point or test point
Vinylmethyldiethoxysilane,289.15,1,C(=C)C[SiH](OCC)OCC,chen14,1,1,0,0,randonly selected as training point or test point
N-(Trimethylsilyl)morpholine,300.15,1,C[Si](N1CCOCC1)(C)C,chen14,1,1,0,0,randonly selected as training point or test point
t-Butoxytrimethylsilane,287.15,1,C(C)(C)(C)O[Si](C)(C)C,chen14,1,1,0,0,randonly selected as training point or test point
(1-Methoxy-2-propoxy)trimethylsilane,293.15,1,COCC(C)O[Si](C)(C)C,chen14,1,1,0,0,randonly selected as training point or test point
Methyltriethoxysilane,297.15,1,C[Si](OCC)(OCC)OCC,chen14,1,1,0,0,randonly selected as training point or test point
(Diethylamino)trimethylsilane,283.15,1,C(C)N(CC)[Si](C)(C)C,chen14,1,1,0,0,randonly selected as training point or test point
Bis(trimethylsilyl)methane,285.15,1,C[Si](C)(C)C[Si](C)(C)C,chen14,1,1,0,0,randonly selected as training point or test point
Heptamethyldisilazane,300.15,1,C[Si](N([Si](C)(C)C)C)(C)C,chen14,1,1,0,0,randonly selected as training point or test point
Bis(trimethylsiloxy)methylsilane,296.15,1,C[Si](OC(O[Si](C)(C)C)[SiH3])(C)C,chen14,1,1,0,0,randonly selected as training point or test point
Tetravinylsilane,291.15,1,C(=C)[Si](C=C)(C=C)C=C,chen14,1,1,0,0,randonly selected as training point or test point
Cyclopentadienyltrimethylsilane,302.15,1,C1(C=CC=C1)[Si](C)(C)C,chen14,1,1,0,0,randonly selected as training point or test point
(Cyclopentenyloxy)trimethylsilane,311.15,1,C1(=CCCC1)O[Si](C)(C)C,chen14,1,1,0,0,randonly selected as training point or test point
"(2,4-Pentadienyl)trimethylsilane",291.15,1,C(C=CC=C)[Si](C)(C)C,chen14,1,1,0,0,randonly selected as training point or test point
n-Octyltrichlorosilane,369.15,1,C(CCCCCCC)[Si](Cl)(Cl)Cl,chen14,1,1,0,0,randonly selected as training point or test point
n-Heptylmethyldichlorosilane,339.15,1,C(CCCCCC)[Si](Cl)(Cl)C,chen14,1,1,0,0,randonly selected as training point or test point
Tetramethyldivinyldisiloxane,292.15,1,C[Si](O[Si](C=C)(C=C)C)(C)C,chen14,1,1,0,0,randonly selected as training point or test point
Triethylacetoxysilane,314.15,1,C(C)C(C(=O)O[SiH3])(CC)CC,chen14,1,1,0,0,randonly selected as training point or test point
Vinyltriethoxysilane,307.15,1,C(=C)[Si](OCC)(OCC)OCC,chen14,1,1,0,0,randonly selected as training point or test point
"1,3-Divinyltetramethyldisilazane",307.15,1,C(=C)[Si](N[Si](C=C)(C)C)(C)C,chen14,1,1,0,0,randonly selected as training point or test point
Diethyldiethoxysilane,316.15,1,C(C)[Si](OCC)(OCC)CC,chen14,1,1,0,0,randonly selected as training point or test point
Tetraethoxysilane,323.15,1,C(C)O[Si](OCC)(OCC)OCC,chen14,1,1,0,0,randonly selected as training point or test point
Tetraethylsilane,305.15,1,C(C)[Si](CC)(CC)CC,chen14,1,1,0,0,randonly selected as training point or test point