compound,flashpoint,pure substance,smiles,source,is_silicon,is_metallic,is_tin,is_acid,data type
"1-Octanol, 7-methyl-",352.65,1,CC(C)CCCCCCO,le15,0,0,0,0,randonly selected as training point or test point
"N,N,N',N',1-Pentamethyltrimethylenediamine",313.75,1,CC(CCN(C)C)N(C)C,le15,0,0,0,0,randonly selected as training point or test point
"octane-1,8-diamine",438.15,1,NCCCCCCCCN,le15,0,0,0,0,randonly selected as training point or test point
"Hydrazine, 1-(1,5-dimethylhexyl)-",373.35,1,CC(C)CCCC(C)NN,le15,0,0,0,0,randonly selected as training point or test point
tetraethylsilane,299.25,1,CC[Si](CC)(CC)CC,le15,1,1,0,0,randonly selected as training point or test point
"Acetonitrile, trichloro-",283.65,1,N#CC(Cl)(Cl)Cl,le15,0,0,0,0,randonly selected as training point or test point
"1,3-Benzenediol, 4-chloro-",394.75,1,Oc1ccc(Cl)c(O)c1,le15,0,0,0,0,randonly selected as training point or test point
"1,4-Benzenediol, 2-chloro-",392.85,1,Oc1ccc(O)c(Cl)c1,le15,0,0,0,0,randonly selected as training point or test point
"1,2-Benzenediol, 4-chloro-",388.45,1,Oc1ccc(Cl)cc1O,le15,0,0,0,0,randonly selected as training point or test point
"Toluene, alpha-chloro-p-fluoro- (8CI)",338.15,1,Fc1ccc(CCl)cc1,le15,0,0,0,0,randonly selected as training point or test point
1-chloro-3-fluoro-2-methylbenzene,320.85,1,Cc1c(F)cccc1Cl,le15,0,0,0,0,randonly selected as training point or test point
(E)-1-chloro-3-ethylpent-1-en-4-yn-3-ol,341.55,1,C#CC(O)(/C=C/Cl)CC,le15,0,0,0,0,randonly selected as training point or test point
4-chlorobenzenethiol,351.75,1,Sc1ccc(Cl)cc1,le15,0,0,0,0,randonly selected as training point or test point
3-chlorobenzenethiol,363.15,1,Sc1cccc(Cl)c1,le15,0,0,0,0,randonly selected as training point or test point
2-chlorobenzenethiol,361.45,1,Sc1ccccc1Cl,le15,0,0,0,0,randonly selected as training point or test point
"Thiazole, 2-amino-5-nitro-",435.65,1,Nc1ncc([N+](=O)[O-])s1,le15,0,0,0,0,randonly selected as training point or test point
8-Hydroxyquinoline,416.25,1,Oc1cccc2cccnc12,le15,0,0,0,0,randonly selected as training point or test point
5-Hydroxyquinoline,474.85,1,Oc1cccc2ncccc12,le15,0,0,0,0,randonly selected as training point or test point
7-Hydroxyquinoline,416.22,1,Oc1ccc2cccnc2c1,le15,0,0,0,0,randonly selected as training point or test point
4-Hydroxyquinoline,395.45,1,Oc1ccnc2ccccc12,le15,0,0,0,0,randonly selected as training point or test point
"Quinoline, 1-oxide, dihydrate",408.35,1,O.O.[O-][n+]1cccc2ccccc21,le15,0,0,0,0,randonly selected as training point or test point
6-Hydroxyquinoline,416.25,1,Oc1ccc2ncccc2c1,le15,0,0,0,0,randonly selected as training point or test point
"2,3-dimethyl-1H-indole",393.95,1,Cc1[nH]c2ccccc2c1C,le15,0,0,0,0,randonly selected as training point or test point
2-phenylbutanenitrile,378.15,1,CCC(C#N)c1ccccc1,le15,0,0,0,0,randonly selected as training point or test point
"Butyronitrile, 4-phenyl- (8CI)",404.85,1,N#CCCCc1ccccc1,le15,0,0,0,0,randonly selected as training point or test point
ethyl N-butylcarbamate,350.65,1,CCCCNC(=O)OCC,le15,0,0,0,0,randonly selected as training point or test point
"Heptanoic acid, 7-amino-",390.65,1,NCCCCCCC(=O)O,le15,0,0,0,1,randonly selected as training point or test point
"Ethanol, 2-(bis(1-methylethyl)amino)-",343.15,1,CC(C)N(CCO)C(C)C,le15,0,0,0,0,randonly selected as training point or test point
2-(dipropylamino)ethanol,338.75,1,CCCN(CCC)CCO,le15,0,0,0,0,randonly selected as training point or test point
"1,3-Propanediamine, N-(3-aminopropyl)-N-methyl-",375.95,1,CN(CCCN)CCCN,le15,0,0,0,0,randonly selected as training point or test point
"1-Propene, 1,2,3-trichloro-",338.65,1,ClC=C(Cl)CCl,le15,0,0,0,0,randonly selected as training point or test point
"1,1,2-trichloroprop-1-ene",314.95,1,CC(Cl)=C(Cl)Cl,le15,0,0,0,0,randonly selected as training point or test point
"3,3,3-trichloroprop-1-ene",310.85,1,C=CC(Cl)(Cl)Cl,le15,0,0,0,0,randonly selected as training point or test point
"s-Triazine, 2,4-diamino-6-chloro- (8CI)",522.05,1,Nc1nc(N)nc(Cl)n1,le15,0,0,0,0,randonly selected as training point or test point
3-chloro-4-fluoroaniline,422.15,1,Nc1ccc(F)c(Cl)c1,le15,0,0,0,0,randonly selected as training point or test point
"2,2,3,3-tetrafluoropropanoic acid",312.05,1,O=C(O)C(F)(F)C(F)F,le15,0,0,0,1,randonly selected as training point or test point
"1-ethoxy-1,1,2,2-tetrafluoroethane",330.15,1,CCOC(F)(F)C(F)F,le15,0,0,0,0,randonly selected as training point or test point
"Toluene, alpha,alpha,alpha-trifluoro-",285.15,1,FC(F)(F)c1ccccc1,le15,0,0,0,0,randonly selected as training point or test point
2H-1-Benzopyran-2-one,435.15,1,O=c1ccc2ccccc2o1,le15,0,0,0,0,randonly selected as training point or test point
isochromen-1-one,376.65,1,O=c1occc2ccccc12,le15,0,0,0,0,randonly selected as training point or test point
"Ethanedioic acid, 1,2-diethyl ester",349.15,1,CCOC(=O)C(=O)OCC,le15,0,0,0,1,randonly selected as training point or test point
"Butanedioic acid, dimethyl ester",361.55,1,COC(=O)CCC(=O)OC,le15,0,0,0,1,randonly selected as training point or test point
"Ethylene glycol, diacetate",355.15,1,CC(=O)OCCOC(C)=O,le15,0,0,0,0,randonly selected as training point or test point
1(2H)-Phthalazinone,483.05,1,O=c1[nH]ncc2ccccc12,le15,0,0,0,0,randonly selected as training point or test point
Hexanedioic acid,445.895,1,O=C(O)CCCCC(=O)O,le15,0,0,0,1,randonly selected as training point or test point
4-Hydroxyquinazoline,410.45,1,Oc1ncnc2ccccc12,le15,0,0,0,0,randonly selected as training point or test point
1-acetyloxyethyl acetate,351.35,1,CC(=O)OC(C)OC(C)=O,le15,0,0,0,0,randonly selected as training point or test point
dimethyl 2-methylpropanedioate,349.25,1,COC(=O)C(C)C(=O)OC,le15,0,0,0,0,randonly selected as training point or test point
"1,3,4-Oxadiazole, 2-phenyl-",384.15,1,c1ccc(-c2nnco2)cc1,le15,0,0,0,0,randonly selected as training point or test point
"Benzamide, p-cyano- (8CI)",438.75,1,N#Cc1ccc(C(N)=O)cc1,le15,0,0,0,0,randonly selected as training point or test point
1-fluoronaphthalene,338.75,1,Fc1cccc2ccccc12,le15,0,0,0,0,randonly selected as training point or test point
2-fluoronaphthalene,338.55,1,Fc1ccc2ccccc2c1,le15,0,0,0,0,randonly selected as training point or test point
"4-Thiazolecarboxylic acid, 2-amino-4,5-dihydro-",472.45,1,NC1=NC(C(=O)O)CS1,le15,0,0,0,1,randonly selected as training point or test point
"3-Buten-2-one, 4-phenyl-",338.75,1,CC(=O)C=Cc1ccccc1,le15,0,0,0,0,randonly selected as training point or test point
"Benzenemethanol, alpha-ethynyl-alpha-methyl-",369.15,1,C#CC(C)(O)c1ccccc1,le15,0,0,0,0,randonly selected as training point or test point
"1,2,3,4-Tetrahydronaphthalen-1-one",377.75,1,O=C1CCCc2ccccc21,le15,0,0,0,0,randonly selected as training point or test point
(E)-4-phenylbut-3-en-2-one,338.75,1,CC(=O)/C=C/c1ccccc1,le15,0,0,0,0,randonly selected as training point or test point
"4,7-dimethyl-1-benzofuran",359.55,1,Cc1ccc(C)c2occc12,le15,0,0,0,0,randonly selected as training point or test point
"2-Propenal, 2-methyl-3-phenyl-",363.45,1,CC(C=O)=Cc1ccccc1,le15,0,0,0,0,randonly selected as training point or test point
"5,6-dimethyl-1-benzofuran",361.85,1,Cc1cc2ccoc2cc1C,le15,0,0,0,0,randonly selected as training point or test point
"Propanoic acid, 2-hydroxy-, butyl ester",344.15,1,CCCCOC(=O)C(C)O,le15,0,0,0,1,randonly selected as training point or test point
"Pyridine, 3-(3,4-dihydro-2H-pyrrol-5-yl)- (9CI)",374.95,1,c1cncc(C2=NCCC2)c1,le15,0,0,0,0,randonly selected as training point or test point
dipropyl carbonate,328.15,1,CCCOC(=O)OCCC,le15,0,0,0,0,randonly selected as training point or test point
"Propanoic acid, 3-ethoxy-, ethyl ester",325.35,1,CCOCCC(=O)OCC,le15,0,0,0,1,randonly selected as training point or test point
"Propanenitrile, 3-(phenylamino)-",426.05,1,N#CCCNc1ccccc1,le15,0,0,0,0,randonly selected as training point or test point
4-(dimethylamino)benzonitrile,418.55,1,CN(C)c1ccc(C#N)cc1,le15,0,0,0,0,randonly selected as training point or test point
"m-Dioxane-4-ethanol, 4-methyl-",374.65,1,CC1(CCO)CCOCO1,le15,0,0,0,0,randonly selected as training point or test point
"1-Butanol, 3-methoxy-, acetate",329.05,1,COC(C)CCOC(C)=O,le15,0,0,0,0,randonly selected as training point or test point
"2-Propenal, phenylhydrazone (9CI)",375.25,1,C=CC=NNc1ccccc1,le15,0,0,0,0,randonly selected as training point or test point
"2,6-dimethyl-1H-benzimidazole",459.764,1,Cc1ccc2nc(C)[nH]c2c1,le15,0,0,0,0,randonly selected as training point or test point
"(2S)-2,6-diaminohexanoic acid",415.35,1,NCCCC[C@H](N)C(=O)O,le15,0,0,0,1,randonly selected as training point or test point
DL-Lysine,415.366,1,NCCCCC(N)C(=O)O,le15,0,0,0,0,randonly selected as training point or test point
"2-Propenoic acid, 2-(methylthio)ethyl ester (9CI)",360.85,1,C=CC(=O)OCCSC,le15,0,0,0,1,randonly selected as training point or test point
"2-ethenyl-1,3,5-trimethylbenzene",344.95,1,C=Cc1c(C)cc(C)cc1C,le15,0,0,0,0,randonly selected as training point or test point
"1-methyl-1,2,3,4-tetrahydronaphthalene",352.25,1,CC1CCCc2ccccc21,le15,0,0,0,0,randonly selected as training point or test point
"6-methyl-1,2,3,4-tetrahydronaphthalene",365.45,1,Cc1ccc2c(c1)CCCC2,le15,0,0,0,0,randonly selected as training point or test point
1-ethenyl-4-propan-2-ylbenzene,343.25,1,C=Cc1ccc(C(C)C)cc1,le15,0,0,0,0,randonly selected as training point or test point
"2-methyl-1,2,3,4-tetrahydronaphthalene",352.85,1,CC1CCc2ccccc2C1,le15,0,0,0,0,randonly selected as training point or test point
"1-ethyl-2,3-dihydro-1H-indene",348.65,1,CCC1CCc2ccccc21,le15,0,0,0,0,randonly selected as training point or test point
"3,3-dimethyl-1,2-dihydroindene",336.75,1,CC1(C)CCc2ccccc21,le15,0,0,0,0,randonly selected as training point or test point
pent-1-en-3-ylbenzene,333.75,1,C=CC(CC)c1ccccc1,le15,0,0,0,0,randonly selected as training point or test point
"5-methyl-1,2,3,4-tetrahydronaphthalene",367.35,1,Cc1cccc2c1CCCC2,le15,0,0,0,0,randonly selected as training point or test point
"1,3-Hexanediol, 2-ethyl-",402.55,1,CCCC(O)C(CC)CO,le15,0,0,0,0,randonly selected as training point or test point
"2,5-dimethylhexane-2,5-diol",399.85,1,CC(C)(O)CCC(C)(C)O,le15,0,0,0,0,randonly selected as training point or test point
"Peroxide, bis(1,1-dimethylethyl)",302.85,1,CC(C)(C)OOC(C)(C)C,le15,0,0,0,0,randonly selected as training point or test point
"Ethanol, 2-(hexyloxy)-",372.05,1,CCCCCCOCCO,le15,0,0,0,0,randonly selected as training point or test point
"Ethanol, 2-(2-ethylbutoxy)-",331.25,1,CCC(CC)COCCO,le15,0,0,0,0,randonly selected as training point or test point
Ditertbutylperoxide,285.0,1,CC(C)(C)OOC(C)(C)C,le15,0,0,0,0,randonly selected as training point or test point
1-amino-3-(diethylamino)propan-2-ol,361.85,1,CCN(CC)CC(O)CN,le15,0,0,0,0,randonly selected as training point or test point
"1,2-Ethanediamine, N,N'-bis(2-aminoethyl)-",422.15,1,NCCNCCNCCN,le15,0,0,0,0,randonly selected as training point or test point
1-fluorononane,358.45,1,CCCCCCCCCF,le15,0,0,0,0,randonly selected as training point or test point
"Diethylenetriamine, 4-(2-aminoethyl)- (6CI,7CI,8CI)",367.65,1,NCCN(CCN)CCN,le15,0,0,0,0,randonly selected as training point or test point
"Propionic acid, 3-(trimethylsilyl)- (8CI)",362.15,1,C[Si](C)(C)CCC(=O)O,le15,1,1,0,1,randonly selected as training point or test point
"Disulfide, di-2-propenyl",315.55,1,C=CCSSCC=C,le15,0,0,0,0,randonly selected as training point or test point
tert-Butyl sulfide (8CI),299.85,1,CC(C)(C)SC(C)(C)C,le15,0,0,0,0,randonly selected as training point or test point
"Butane, 1,1'-thiobis-",349.85,1,CCCCSCCCC,le15,0,0,0,0,randonly selected as training point or test point
2-methyl-1-(2-methylpropylsulfanyl)propane,319.05,1,CC(C)CSCC(C)C,le15,0,0,0,0,randonly selected as training point or test point
secButylsulfide,312.0,1,CCC(C)SC(C)CC,le15,0,0,0,0,randonly selected as training point or test point
"Ethanesulfonyl fluoride, 2-chloro-",308.85,1,O=S(=O)(F)CCCl,le15,0,0,0,0,randonly selected as training point or test point
cyclohexanecarbonyl chloride,354.45,1,O=C(Cl)C1CCCCC1,le15,0,0,0,0,randonly selected as training point or test point
3-bromofuran,276.45,1,Brc1ccoc1,le15,0,0,0,0,randonly selected as training point or test point
4-bromo-1H-pyrazole,381.15,1,Brc1cn[nH]c1,le15,0,0,0,0,randonly selected as training point or test point
3-(trifluoromethyl)pyridine,304.25,1,FC(F)(F)c1cccnc1,le15,0,0,0,0,randonly selected as training point or test point
"Benzenamine, 2,3,4-trifluoro-",344.95,1,Nc1ccc(F)c(F)c1F,le15,0,0,0,0,randonly selected as training point or test point
"1H-Isoindole-1,3(2H)-dione",444.05,1,O=C1NC(=O)c2ccccc21,le15,0,0,0,0,randonly selected as training point or test point
ethyl 2-nitropropanoate,362.55,1,CCOC(=O)C(C)[N+](=O)[O-],le15,0,0,0,0,randonly selected as training point or test point
"1,2,3-Benzotriazin-4(3H)-one (8CI)",397.75,1,O=c1[nH]nnc2ccccc12,le15,0,0,0,0,randonly selected as training point or test point
"Quinoline, 8-fluoro-",371.15,1,Fc1cccc2cccnc12,le15,0,0,0,0,randonly selected as training point or test point
"Quinoline, 5-fluoro-",371.15,1,Fc1cccc2ncccc12,le15,0,0,0,0,randonly selected as training point or test point
"Quinoline, 4-fluoro-",371.15,1,Fc1ccnc2ccccc12,le15,0,0,0,0,randonly selected as training point or test point
"Quinoline, 3-fluoro-",371.15,1,Fc1cnc2ccccc2c1,le15,0,0,0,0,randonly selected as training point or test point
"Quinoline, 7-fluoro-",371.15,1,Fc1ccc2cccnc2c1,le15,0,0,0,0,randonly selected as training point or test point
2-Fluoroquinoline,373.25,1,Fc1ccc2ccccc2n1,le15,0,0,0,0,randonly selected as training point or test point
"Quinoline, 6-fluoro-",371.15,1,Fc1ccc2ncccc2c1,le15,0,0,0,0,randonly selected as training point or test point
"2,5-dimethyl-1,3-benzoxazole",364.15,1,Cc1ccc2oc(C)nc2c1,le15,0,0,0,0,randonly selected as training point or test point
2-(4-methoxyphenyl)acetonitrile,385.15,1,COc1ccc(CC#N)cc1,le15,0,0,0,0,randonly selected as training point or test point
"1H-Benzimidazol-2-amine, 1-methyl-",429.45,1,Cn1c(N)nc2ccccc21,le15,0,0,0,0,randonly selected as training point or test point
hexyl nitrate,335.95,1,CCCCCCO[N+](=O)[O-],le15,0,0,0,0,randonly selected as training point or test point
"1-methyl-3,4-dihydro-2H-quinoline",368.15,1,CN1CCCc2ccccc21,le15,0,0,0,0,randonly selected as training point or test point
2-[(E)-pent-3-enyl]pyridine,355.95,1,C/C=C/CCc1ccccn1,le15,0,0,0,0,randonly selected as training point or test point
"1,1-diethoxy-N,N-dimethylmethanamine",295.35,1,CCOC(OCC)N(C)C,le15,0,0,0,0,randonly selected as training point or test point
"Ethanol, 2-((2-((2-aminoethyl)amino)ethyl)amino)-",379.25,1,NCCNCCNCCO,le15,0,0,0,0,randonly selected as training point or test point
"Acetaldehyde, 2,2,2-trichloro-",288.05,1,O=CC(Cl)(Cl)Cl,le15,0,0,0,0,randonly selected as training point or test point
"Propane, 1,1,2-trichloro-",317.45,1,CC(Cl)C(Cl)Cl,le15,0,0,0,0,randonly selected as training point or test point
"Propane, 1,2,2-trichloro-",317.25,1,CC(Cl)(Cl)CCl,le15,0,0,0,0,randonly selected as training point or test point
"Propane, 1,2,3-trichloro-",347.15,1,ClCC(Cl)CCl,le15,0,0,0,0,randonly selected as training point or test point
"1,1,3-trichloropropane",332.85,1,ClCCC(Cl)Cl,le15,0,0,0,0,randonly selected as training point or test point
"Pyridine, 2,3-dichloro-",360.65,1,Clc1cccnc1Cl,le15,0,0,0,0,randonly selected as training point or test point
"Pyridine, 2,6-dichloro-",370.65,1,Clc1cccc(Cl)n1,le15,0,0,0,0,randonly selected as training point or test point
"Butanenitrile, 4-bromo-",377.05,1,N#CCCCBr,le15,0,0,0,0,randonly selected as training point or test point
"2-Butenedioic acid, 2,3-dihydroxy-, (E)- (9CI)",475.36300000000006,1,O=C(O)/C(O)=C(\O)C(=O)O,le15,0,0,0,1,randonly selected as training point or test point
PhthalicAnhydride,425.0,1,O=C1OC(=O)c2ccccc21,le15,0,0,0,0,randonly selected as training point or test point
"Benzonitrile, 3-nitro-",383.05,1,N#Cc1cccc([N+](=O)[O-])c1,le15,0,0,0,0,randonly selected as training point or test point
"Benzonitrile, 4-nitro-",413.05,1,N#Cc1ccc([N+](=O)[O-])cc1,le15,0,0,0,0,randonly selected as training point or test point
"Benzonitrile, 2-nitro- (9CI)",410.75,1,N#Cc1ccccc1[N+](=O)[O-],le15,0,0,0,0,randonly selected as training point or test point
"2-Propenoic acid, 3-phenyl-, (2E)-",462.65,1,O=C(O)/C=C/c1ccccc1,le15,0,0,0,1,randonly selected as training point or test point
"4H-1-Benzopyran-4-one, 2,3-dihydro-",401.534,1,O=C1CCOc2ccccc21,le15,0,0,0,0,randonly selected as training point or test point
"1,2-Propanedione, 1-phenyl-",357.15,1,CC(=O)C(=O)c1ccccc1,le15,0,0,0,0,randonly selected as training point or test point
"2H-1-Benzopyran-2-one, 3,4-dihydro-",381.55,1,O=C1CCc2ccccc2O1,le15,0,0,0,0,randonly selected as training point or test point
"3-Pyridinecarbonitrile, 1,2-dihydro-4,6-dimethyl-2-oxo-",429.95,1,Cc1cc(C)c(C#N)c(=O)[nH]1,le15,0,0,0,0,randonly selected as training point or test point
"Indoline, 1-nitroso-",409.05,1,O=NN1CCc2ccccc21,le15,0,0,0,0,randonly selected as training point or test point
"2-Butanone, 3-ethoxy-1,1-dihydroxy-",372.65,1,CCOC(C)C(=O)C(O)O,le15,0,0,0,0,randonly selected as training point or test point
"Hydratropaldehyde, p-methyl- (6CI,7CI,8CI)",374.15,1,Cc1ccc(C(C)C=O)cc1,le15,0,0,0,0,randonly selected as training point or test point
"Benzene, 1-methoxy-4-(2-propenyl)-",354.15,1,C=CCc1ccc(OC)cc1,le15,0,0,0,0,randonly selected as training point or test point
"2,4,6-trimethylbenzaldehyde",378.75,1,Cc1cc(C)c(C=O)c(C)c1,le15,0,0,0,0,randonly selected as training point or test point
"1-Naphthalenol, 1,2,3,4-tetrahydro-",373.05,1,OC1CCCc2ccccc21,le15,0,0,0,0,randonly selected as training point or test point
"2-Naphthalenol, 1,2,3,4-tetrahydro- (9CI)",371.55,1,OC1CCc2ccccc2C1,le15,0,0,0,0,randonly selected as training point or test point
2-methyl-1-phenylpropan-1-one,352.45,1,CC(C)C(=O)c1ccccc1,le15,0,0,0,0,randonly selected as training point or test point
1-(4-ethylphenyl)ethanone,367.25,1,CCc1ccc(C(C)=O)cc1,le15,0,0,0,0,randonly selected as training point or test point
1-phenylbutan-2-one,363.75,1,CCC(=O)Cc1ccccc1,le15,0,0,0,0,randonly selected as training point or test point
"5,6,7,8-tetrahydronaphthalen-2-ol",404.95,1,Oc1ccc2c(c1)CCCC2,le15,0,0,0,0,randonly selected as training point or test point
"Benzene, (3,4-epoxybutyl)-",358.65,1,c1ccc(CCC2CO2)cc1,le15,0,0,0,0,randonly selected as training point or test point
"2-Propen-1-ol, 2-methyl-3-phenyl-",395.65,1,CC(=Cc1ccccc1)CO,le15,0,0,0,0,randonly selected as training point or test point
"2-Butanone, 4-phenyl-",371.15,1,CC(=O)CCc1ccccc1,le15,0,0,0,0,randonly selected as training point or test point
3-(4-methylphenyl)propanal,372.55,1,Cc1ccc(CCC=O)cc1,le15,0,0,0,0,randonly selected as training point or test point
1-(3-methylphenyl)propan-1-one,371.25,1,CCC(=O)c1cccc(C)c1,le15,0,0,0,0,randonly selected as training point or test point
"Benzene, 1-methoxy-4-(1-propenyl)-",361.55,1,CC=Cc1ccc(OC)cc1,le15,0,0,0,0,randonly selected as training point or test point
"Benzaldehyde, 4-(1-methylethyl)-",366.45,1,CC(C)c1ccc(C=O)cc1,le15,0,0,0,0,randonly selected as training point or test point
"5,6,7,8-tetrahydronaphthalen-1-ol",395.75,1,Oc1cccc2c1CCCC2,le15,0,0,0,0,randonly selected as training point or test point
"1-(2,5-dimethylphenyl)ethanone",361.95,1,CC(=O)c1cc(C)ccc1C,le15,0,0,0,0,randonly selected as training point or test point
"Benzene, 1-methoxy-4-(1-propenyl)-, (E)-",361.55,1,C/C=C/c1ccc(OC)cc1,le15,0,0,0,0,randonly selected as training point or test point
4-methyl-2-prop-2-enylphenol,374.85,1,C=CCc1cc(C)ccc1O,le15,0,0,0,0,randonly selected as training point or test point
1phenyl1butanone,361.0,1,CCCC(=O)c1ccccc1,le15,0,0,0,0,randonly selected as training point or test point
Anethole,363.0,1,CC=Cc1ccc(OC)cc1,le15,0,0,0,0,randonly selected as training point or test point
"Ethane, 1,1',1''-(methylidynetris(oxy))tris-",303.15,1,CCOC(OCC)OCC,le15,0,0,0,0,randonly selected as training point or test point
"Ether, 2-ethoxyethyl 2-methoxyethyl",326.95,1,CCOCCOCCOC,le15,0,0,0,0,randonly selected as training point or test point