compound,flashpoint,pure substance,smiles,source,is_silicon,is_metallic,is_tin,is_acid,data type
"Benzenemethanol, 4-ethyl-",377.55,1,CCc1ccc(CO)cc1,le15,0,0,0,0,randonly selected as training point or test point
"1-methoxy-3,5-dimethylbenzene",338.15,1,COc1cc(C)cc(C)c1,le15,0,0,0,0,randonly selected as training point or test point
"2-methoxy-1,3-dimethylbenzene",340.15,1,COc1c(C)cccc1C,le15,0,0,0,0,randonly selected as training point or test point
"Phenethyl alcohol, beta-methyl-",381.15,1,CC(CO)c1ccccc1,le15,0,0,0,0,randonly selected as training point or test point
1-ethyl-4-methoxybenzene,341.65,1,CCc1ccc(OC)cc1,le15,0,0,0,0,randonly selected as training point or test point
"m-Cresol, 6-ethyl-",368.55,1,CCc1ccc(C)cc1O,le15,0,0,0,0,randonly selected as training point or test point
"2-methoxy-1,4-dimethylbenzene",339.25,1,COc1cc(C)ccc1C,le15,0,0,0,0,randonly selected as training point or test point
propan-2-yloxybenzene,335.05,1,CC(C)Oc1ccccc1,le15,0,0,0,0,randonly selected as training point or test point
"1-methoxy-2,3-dimethylbenzene",342.95,1,COc1cccc(C)c1C,le15,0,0,0,0,randonly selected as training point or test point
"Benzene, (2-methoxyethyl)-",325.65,1,COCCc1ccccc1,le15,0,0,0,0,randonly selected as training point or test point
"4-methoxy-1,2-dimethylbenzene",348.75,1,COc1ccc(C)c(C)c1,le15,0,0,0,0,randonly selected as training point or test point
"1-methoxy-2,4-dimethylbenzene",338.25,1,COc1ccc(C)cc1C,le15,0,0,0,0,randonly selected as training point or test point
1-ethyl-2-methoxybenzene,333.75,1,CCc1ccccc1OC,le15,0,0,0,0,randonly selected as training point or test point
2-(2-methylphenyl)ethanol,381.45,1,Cc1ccccc1CCO,le15,0,0,0,0,randonly selected as training point or test point
"(3,5-dimethylphenyl)methanol",379.85,1,Cc1cc(C)cc(CO)c1,le15,0,0,0,0,randonly selected as training point or test point
"Benzenemethanol, alpha-ethyl- (9CI)",363.15,1,CCC(O)c1ccccc1,le15,0,0,0,0,randonly selected as training point or test point
3-propylphenol,381.95,1,CCCc1cccc(O)c1,le15,0,0,0,0,randonly selected as training point or test point
3-ethyl-5-methylphenol,376.65,1,CCc1cc(C)cc(O)c1,le15,0,0,0,0,randonly selected as training point or test point
"Phenol, 2,3,6-trimethyl-",373.15,1,Cc1ccc(C)c(O)c1C,le15,0,0,0,0,randonly selected as training point or test point
"(2,4-dimethylphenyl)methanol",374.85,1,Cc1ccc(CO)c(C)c1,le15,0,0,0,0,randonly selected as training point or test point
"1,4-Benzenediamine, N,N-dimethyl-",361.75,1,CN(C)c1ccc(N)cc1,le15,0,0,0,0,randonly selected as training point or test point
"2,3,5,6-Tetramethylpyrazine",344.75,1,Cc1nc(C)c(C)nc1C,le15,0,0,0,0,randonly selected as training point or test point
"m-Xylene-alpha,alpha'-diamine (8CI)",403.55,1,NCc1cccc(CN)c1,le15,0,0,0,0,randonly selected as training point or test point
"2-N,2-N-dimethylbenzene-1,2-diamine",355.45,1,CN(C)c1ccccc1N,le15,0,0,0,0,randonly selected as training point or test point
"3-N,3-N-dimethylbenzene-1,3-diamine",361.95,1,CN(C)c1cccc(N)c1,le15,0,0,0,0,randonly selected as training point or test point
"Butanedinitrile, tetramethyl- (9CI)",389.55,1,CC(C)(C#N)C(C)(C)C#N,le15,0,0,0,0,randonly selected as training point or test point
"p-Phenylenediamine, 2,3-dimethyl-",424.65,1,Cc1c(N)ccc(N)c1C,le15,0,0,0,0,randonly selected as training point or test point
"Pyridine, 2-(2-(methylamino)ethyl)-",369.85,1,CNCCc1ccccn1,le15,0,0,0,0,randonly selected as training point or test point
"3-ethyl-2,5-dimethylpyrazine",342.55,1,CCc1nc(C)cnc1C,le15,0,0,0,0,randonly selected as training point or test point
"2,3-diethylpyrazine",337.15,1,CCc1nccnc1CC,le15,0,0,0,0,randonly selected as training point or test point
Octanedinitrile,419.35,1,N#CCCCCCCC#N,le15,0,0,0,0,randonly selected as training point or test point
Phenyl vinyl sulphide,318.75,1,C=CSc1ccccc1,le15,0,0,0,0,randonly selected as training point or test point
"2,3-dihydro-1-benzothiophene",357.05,1,c1ccc2c(c1)CCS2,le15,0,0,0,0,randonly selected as training point or test point
"Silane, methyltrimethoxy-",284.25,1,CO[Si](C)(OC)OC,le15,1,1,0,0,randonly selected as training point or test point
N-dimethylsulfinamoyl-N-methylmethanamine,353.35,1,CN(C)S(=O)N(C)C,le15,0,0,0,0,randonly selected as training point or test point
"Bicyclo(3.1.1)hept-2-ene, 2,6,6-trimethyl-",305.372,1,CC1=CCC2CC1C2(C)C,le15,0,0,0,0,randonly selected as training point or test point
"1,3-Cyclohexadiene, 2-methyl-5-(1-methylethyl)-",320.35,1,CC1=CCC(C(C)C)C=C1,le15,0,0,0,0,randonly selected as training point or test point
4-methylidene-1-propan-2-ylcyclohexene,319.65,1,C=C1CC=C(C(C)C)CC1,le15,0,0,0,0,randonly selected as training point or test point
"1,4-Cyclohexadiene, 1-methyl-4-(1-methylethyl)-",324.85,1,CC1=CCC(C(C)C)=CC1,le15,0,0,0,0,randonly selected as training point or test point
"1,3-Cyclohexadiene, 1-methyl-4-(1-methylethyl)-",319.25,1,CC1=CC=C(C(C)C)CC1,le15,0,0,0,0,randonly selected as training point or test point
"1,6-Octadiene, 7-methyl-3-methylene-",317.55,1,C=CC(=C)CCC=C(C)C,le15,0,0,0,0,randonly selected as training point or test point
"Cyclohexene, 1-methyl-4-(1-methylethenyl)-",319.15,1,C=C(C)C1CC=C(C)CC1,le15,0,0,0,0,randonly selected as training point or test point
"Tricyclo(3.3.1.13,7)decane",322.05,1,C1C2CC3CC1CC(C2)C3,le15,0,0,0,0,randonly selected as training point or test point
"4,7,7-trimethylbicyclo[2.2.1]hept-2-ene",298.05,1,CC12C=CC(CC1)C2(C)C,le15,0,0,0,0,randonly selected as training point or test point
"2,2-dimethyl-5-methylidenebicyclo[2.2.1]heptane",308.05,1,C=C1CC2CC1CC2(C)C,le15,0,0,0,0,randonly selected as training point or test point
"4,7,7-trimethylbicyclo[4.1.0]hept-4-ene",311.45,1,CC1=CC2C(CC1)C2(C)C,le15,0,0,0,0,randonly selected as training point or test point
"Cyclohexene, 3-methyl-6-(1-methylethylidene)- (9CI)",337.55,1,CC(C)=C1C=CC(C)CC1,le15,0,0,0,0,randonly selected as training point or test point
2-methyl-5-propan-2-ylbicyclo[3.1.0]hex-2-ene,306.75,1,CC1=CCC2(C(C)C)CC12,le15,0,0,0,0,randonly selected as training point or test point
"2,4,6-Octatriene, 2,6-dimethyl-, (4E,6E)-",324.95,1,C/C=C(C)/C=C/C=C(C)C,le15,0,0,0,0,randonly selected as training point or test point
"(1R,4R)-4,7,7-TRIMETHYLBICYCLO[4.1.0]HEPT-2-ENE",303.25,1,C[C@H]1C=C[C@@H]2C(C1)C2(C)C,le15,0,0,0,0,randonly selected as training point or test point
"(1S,4R)-3,3-dimethyl-2-methylidenebicyclo[2.2.1]heptane",308.05,1,C=C1[C@H]2CC[C@H](C2)C1(C)C,le15,0,0,0,0,randonly selected as training point or test point
"Bicyclo(3.1.1)heptane, 6,6-dimethyl-2-methylene-, (1S,5S)-",308.05,1,C=C1CC[C@H]2C[C@@H]1C2(C)C,le15,0,0,0,0,randonly selected as training point or test point
3-methylidene-6-propan-2-ylcyclohexene,317.15,1,C=C1C=CC(C(C)C)CC1,le15,0,0,0,0,randonly selected as training point or test point
1-methyl-4-prop-1-en-2-ylcyclohexene,321.15,1,C=C(C)C1CC=C(C)CC1,le15,0,0,0,0,randonly selected as training point or test point
"4,6,6-trimethylbicyclo[3.1.1]hept-3-ene",305.35,1,CC1=CCC2CC1C2(C)C,le15,0,0,0,0,randonly selected as training point or test point
"(1R,5R)-4,6,6-trimethylbicyclo[3.1.1]hept-3-ene",305.35,1,CC1=CC[C@@H]2C[C@H]1C2(C)C,le15,0,0,0,0,randonly selected as training point or test point
2carene,428.15,1,CC1=CC2C(CC1)C2(C)C,le15,0,0,0,0,randonly selected as training point or test point
"1,3-dithiolane-2-thione",412.65,1,S=C1SCCS1,le15,0,0,0,0,randonly selected as training point or test point
dimethyl(phenyl)silicon,308.15,1,C[Si](C)c1ccccc1,le15,1,1,0,0,randonly selected as training point or test point
tetrakis(ethenyl)silane,279.25,1,C=C[Si](C=C)(C=C)C=C,le15,1,1,0,0,randonly selected as training point or test point
ethyl 2-chloro-2-oxoacetate,314.15,1,CCOC(=O)C(=O)Cl,le15,0,0,0,0,randonly selected as training point or test point
"Acetic acid, chloro-, isopropyl ester (8CI)",329.15,1,CC(C)OC(=O)CCl,le15,0,0,0,1,randonly selected as training point or test point
"Propionic acid, 2-chloro-, ethyl ester (8CI)",311.15,1,CCOC(=O)C(C)Cl,le15,0,0,0,1,randonly selected as training point or test point
butyl carbonochloridate,312.15,1,CCCCOC(=O)Cl,le15,0,0,0,0,randonly selected as training point or test point
"Propionic acid, 3-chloro-, ethyl ester (8CI)",327.55,1,CCOC(=O)CCCl,le15,0,0,0,1,randonly selected as training point or test point
3-chloropropyl acetate,340.95,1,CC(=O)OCCCCl,le15,0,0,0,0,randonly selected as training point or test point
methyl 4-chlorobutanoate,332.55,1,COC(=O)CCCCl,le15,0,0,0,0,randonly selected as training point or test point
propyl 2-chloroacetate,342.45,1,CCCOC(=O)CCl,le15,0,0,0,0,randonly selected as training point or test point
butan-2-yl carbonochloridate,308.95,1,CCC(C)OC(=O)Cl,le15,0,0,0,0,randonly selected as training point or test point
2-methylpropyl carbonochloridate,300.95,1,CC(C)COC(=O)Cl,le15,0,0,0,0,randonly selected as training point or test point
"1-Hexanol, 6-chloro-",372.05,1,OCCCCCCCl,le15,0,0,0,0,randonly selected as training point or test point
propanoyl bromide,325.35,1,CCC(=O)Br,le15,0,0,0,0,randonly selected as training point or test point
1-bromopropan-2-one,348.45,1,CC(=O)CBr,le15,0,0,0,0,randonly selected as training point or test point
2-(bromomethyl)oxirane,329.25,1,BrCC1CO1,le15,0,0,0,0,randonly selected as training point or test point
2-bromobutane,294.15,1,CCC(C)Br,le15,0,0,0,0,randonly selected as training point or test point
"Propane, 1-bromo-2-methyl-",291.15,1,CC(C)CBr,le15,0,0,0,0,randonly selected as training point or test point
"Butane, 1-bromo-",297.05,1,CCCCBr,le15,0,0,0,0,randonly selected as training point or test point
"Propane, 2-bromo-2-methyl-",291.15,1,CC(C)(C)Br,le15,0,0,0,0,randonly selected as training point or test point
2bromobutane,294.0,1,CCC(C)Br,le15,0,0,0,0,randonly selected as training point or test point
"Benzamide, 2-hydroxy-",419.45,1,NC(=O)c1ccccc1O,le15,0,0,0,0,randonly selected as training point or test point
"Benzene, 1-methyl-2-nitro-",379.261,1,Cc1ccccc1[N+](=O)[O-],le15,0,0,0,0,randonly selected as training point or test point
methyl pyridine-3-carboxylate,368.75,1,COC(=O)c1cccnc1,le15,0,0,0,0,randonly selected as training point or test point
"Benzaldehyde, 2-hydroxy-, oxime",405.45,1,ON=Cc1ccccc1O,le15,0,0,0,0,randonly selected as training point or test point
"Benzene, 1-methyl-3-nitro-",374.15,1,Cc1cccc([N+](=O)[O-])c1,le15,0,0,0,0,randonly selected as training point or test point
"Benzene, 1-methyl-4-nitro-",376.15,1,Cc1ccc([N+](=O)[O-])cc1,le15,0,0,0,0,randonly selected as training point or test point
"Benzoic acid, 2-amino-",415.55,1,Nc1ccccc1C(=O)O,le15,0,0,0,1,randonly selected as training point or test point
"Benzoic acid, 4-amino-",432.55,1,Nc1ccc(C(=O)O)cc1,le15,0,0,0,1,randonly selected as training point or test point
"Benzamide, N-hydroxy-",474.15,1,O=C(NO)c1ccccc1,le15,0,0,0,0,randonly selected as training point or test point
p-Methoxynitrosobenzene,384.15,1,COc1ccc(N=O)cc1,le15,0,0,0,0,randonly selected as training point or test point
"Carbamic acid, phenyl ester (8CI)(9CI)",432.45,1,NC(=O)Oc1ccccc1,le15,0,0,0,1,randonly selected as training point or test point
methyl pyridine-4-carboxylate,350.95,1,COC(=O)c1ccncc1,le15,0,0,0,0,randonly selected as training point or test point
"Benzenamine, 2-ethoxy-",372.35,1,CCOc1ccccc1N,le15,0,0,0,0,randonly selected as training point or test point
"Phenol, 3-(dimethylamino)-",405.85,1,CN(C)c1cccc(O)c1,le15,0,0,0,0,randonly selected as training point or test point
"Benzenamine, 4-methoxy-2-methyl-",386.65,1,COc1ccc(N)c(C)c1,le15,0,0,0,0,randonly selected as training point or test point
"Benzenamine, 2-methoxy-5-methyl-",384.15,1,COc1ccc(C)cc1N,le15,0,0,0,0,randonly selected as training point or test point
"Ethanol, 2-(phenylamino)-",421.15,1,OCCNc1ccccc1,le15,0,0,0,0,randonly selected as training point or test point
"Benzenamine, 4-ethoxy-",383.45,1,CCOc1ccc(N)cc1,le15,0,0,0,0,randonly selected as training point or test point
"Phenol, 3-(ethylamino)- (9CI)",420.35,1,CCNc1cccc(O)c1,le15,0,0,0,0,randonly selected as training point or test point
"Benzenamine, 3-ethoxy-",387.95,1,CCOc1cccc(N)c1,le15,0,0,0,0,randonly selected as training point or test point
"Pyridine, 5-ethyl-2-methyl-, 1-oxide (9CI)",406.05,1,CCc1ccc(C)[n+]([O-])c1,le15,0,0,0,0,randonly selected as training point or test point
"Benzenemethanol, 3-amino-alpha-methyl- (9CI)",399.25,1,CC(O)c1cccc(N)c1,le15,0,0,0,0,randonly selected as training point or test point
3-(3-Pyridyl)propan-1-ol,389.55,1,OCCCc1cccnc1,le15,0,0,0,0,randonly selected as training point or test point
3-pyridin-2-ylpropan-1-ol,376.95,1,OCCCc1ccccn1,le15,0,0,0,0,randonly selected as training point or test point
"Benzenamine, N-hydroxy-2,6-dimethyl- (9CI)",375.85,1,Cc1cccc(C)c1NO,le15,0,0,0,0,randonly selected as training point or test point
"2,5-Dimethylphenylhydroxylamine",379.25,1,Cc1ccc(C)c(NO)c1,le15,0,0,0,0,randonly selected as training point or test point
"Phenol, 4-amino-3,5-dimethyl- (9CI)",406.25,1,Cc1cc(O)cc(C)c1N,le15,0,0,0,0,randonly selected as training point or test point
"3,4-Xylenol, 6-amino- (8CI)",383.15,1,Cc1cc(N)c(O)cc1C,le15,0,0,0,0,randonly selected as training point or test point
(2-methoxyphenyl)methanamine,373.15,1,COc1ccccc1CN,le15,0,0,0,0,randonly selected as training point or test point
"Benzenamine, 3-methoxy-4-methyl-",382.75,1,COc1cc(N)ccc1C,le15,0,0,0,0,randonly selected as training point or test point
5-methoxy-2-methylaniline,388.878,1,COc1ccc(C)c(N)c1,le15,0,0,0,0,randonly selected as training point or test point
2-(2-methoxyethyl)pyridine,336.95,1,COCCc1ccccn1,le15,0,0,0,0,randonly selected as training point or test point
(4-methoxyphenyl)methanamine,371.95,1,COc1ccc(CN)cc1,le15,0,0,0,0,randonly selected as training point or test point
"2,3-Dimethylphenylhydroxylamine",384.85,1,Cc1cccc(NO)c1C,le15,0,0,0,0,randonly selected as training point or test point
"Propanenitrile, 3,3'-(methylimino)bis-",424.55,1,CN(CCC#N)CCC#N,le15,0,0,0,0,randonly selected as training point or test point
Benzenecarbothioamide,393.15,1,NC(=S)c1ccccc1,le15,0,0,0,0,randonly selected as training point or test point
"2-Propen-1-amine, N,N-di-2-propenyl-",303.75,1,C=CCN(CC=C)CC=C,le15,0,0,0,0,randonly selected as training point or test point
"Methane, trichlorofluoro-",275.15,1,FC(Cl)(Cl)Cl,le15,0,0,0,0,randonly selected as training point or test point
2-chlorobenzonitrile,373.95,1,N#Cc1ccccc1Cl,le15,0,0,0,0,randonly selected as training point or test point
4-chlorobenzonitrile,381.15,1,N#Cc1ccc(Cl)cc1,le15,0,0,0,0,randonly selected as training point or test point
"Arsine oxide, hydroxydimethyl- (8CI)",382.55,1,C[As](C)(=O)O,le15,0,1,0,0,randonly selected as training point or test point
"Phosphorous acid, diethyl ester",355.372,1,CCOP([O-])OCC,le15,0,0,0,1,randonly selected as training point or test point
"Benzoic acid, 2-hydroxy-",430.15,1,O=C(O)c1ccccc1O,le15,0,0,0,1,randonly selected as training point or test point
"Benzaldehyde, 2,4-dihydroxy-",439.05,1,O=Cc1ccc(O)cc1O,le15,0,0,0,0,randonly selected as training point or test point
"Benzoic acid, 4-hydroxy-",444.45,1,O=C(O)c1ccc(O)cc1,le15,0,0,0,1,randonly selected as training point or test point
"Phenol, 3,4-(methylenedioxy)-",392.65,1,Oc1ccc2c(c1)OCO2,le15,0,0,0,0,randonly selected as training point or test point
"2,3-Dihydroxybenzaldehyde",386.35,1,O=Cc1cccc(O)c1O,le15,0,0,0,0,randonly selected as training point or test point
"Benzaldehyde, 3,4-dihydroxy- (9CI)",419.85,1,O=Cc1ccc(O)c(O)c1,le15,0,0,0,0,randonly selected as training point or test point
"Benzaldehyde, 2,5-dihydroxy-",408.25,1,O=Cc1cc(O)ccc1O,le15,0,0,0,0,randonly selected as training point or test point
"Benzenamine, 2-nitro-",399.25,1,Nc1ccccc1[N+](=O)[O-],le15,0,0,0,0,randonly selected as training point or test point
"Benzenamine, 3-nitro-",412.65,1,Nc1cccc([N+](=O)[O-])c1,le15,0,0,0,0,randonly selected as training point or test point
"2-Propenoic acid, 3-(1H-imidazol-4-yl)-",503.25,1,O=C(O)C=Cc1c[nH]cn1,le15,0,0,0,1,randonly selected as training point or test point
"2,5-Cyclohexadiene-1,4-dione, dioxime",407.75,1,ON=C1C=CC(=NO)C=C1,le15,0,0,0,0,randonly selected as training point or test point
"Hydroxylamine, N-nitroso-N-phenyl-",374.45,1,O=NN(O)c1ccccc1,le15,0,0,0,0,randonly selected as training point or test point
"Benzenamine, 4-nitro-",438.15,1,Nc1ccc([N+](=O)[O-])cc1,le15,0,0,0,0,randonly selected as training point or test point
1-(4-fluorophenyl)ethanone,344.15,1,CC(=O)c1ccc(F)cc1,le15,0,0,0,0,randonly selected as training point or test point
"Benzene, 1,2-dimethoxy-",360.35,1,COc1ccccc1OC,le15,0,0,0,0,randonly selected as training point or test point
"Phenol, 2-methoxy-4-methyl-",372.55,1,COc1cc(C)ccc1O,le15,0,0,0,0,randonly selected as training point or test point
2-ethoxyphenol,364.25,1,CCOc1ccccc1O,le15,0,0,0,0,randonly selected as training point or test point
"Benzenemethanol, 4-methoxy-",383.15,1,COc1ccc(CO)cc1,le15,0,0,0,0,randonly selected as training point or test point
"Ethanol, 2-phenoxy-",403.15,1,OCCOc1ccccc1,le15,0,0,0,0,randonly selected as training point or test point
"Benzene, 1,3-dimethoxy-",360.92800000000005,1,COc1cccc(OC)c1,le15,0,0,0,0,randonly selected as training point or test point
"2,5-dimethylbenzene-1,3-diol",413.95,1,Cc1cc(O)c(C)c(O)c1,le15,0,0,0,0,randonly selected as training point or test point
"4,5-dimethylbenzene-1,3-diol",405.65,1,Cc1cc(O)cc(O)c1C,le15,0,0,0,0,randonly selected as training point or test point
"Hydroquinone, 2,3-dimethyl- (8CI)",418.55,1,Cc1c(O)ccc(O)c1C,le15,0,0,0,0,randonly selected as training point or test point
"Phenol, 4-ethoxy-",397.15,1,CCOc1ccc(O)cc1,le15,0,0,0,0,randonly selected as training point or test point
1-hydroperoxyethylbenzene,377.85,1,CC(OO)c1ccccc1,le15,0,0,0,0,randonly selected as training point or test point
"1-phenylethane-1,2-diol",418.85,1,OCC(O)c1ccccc1,le15,0,0,0,0,randonly selected as training point or test point
Hydroquinone dimethyl ether,346.65,1,COc1ccc(OC)cc1,le15,0,0,0,0,randonly selected as training point or test point
4-Hydroxyphenethyl alcohol,416.35,1,OCCc1ccc(O)cc1,le15,0,0,0,0,randonly selected as training point or test point
(3-methoxyphenyl)methanol,383.05,1,COc1cccc(CO)c1,le15,0,0,0,0,randonly selected as training point or test point
Benzenecarbothioic acid,367.15,1,OC(=S)c1ccccc1,le15,0,0,0,1,randonly selected as training point or test point
"Sulfurous acid, diethyl ester",326.15,1,CCOS(=O)OCC,le15,0,0,0,1,randonly selected as training point or test point
"Methanesulfonic acid, 1-methylethyl ester",377.15,1,CC(C)OS(C)(=O)=O,le15,0,0,0,1,randonly selected as training point or test point
"Methanesulfonic acid, propyl ester",365.55,1,CCCOS(C)(=O)=O,le15,0,0,0,1,randonly selected as training point or test point
"Ethanol, 2-(ethylsulfonyl)-",428.25,1,CCS(=O)(=O)CCO,le15,0,0,0,0,randonly selected as training point or test point
"2-Cyclohexen-1-one, 3,5,5-trimethyl-",357.55,1,CC1=CC(=O)CC(C)(C)C1,le15,0,0,0,0,randonly selected as training point or test point
"3-Cyclohexen-1-one, 3,5,5-trimethyl-",337.35,1,CC1=CC(C)(C)CC(=O)C1,le15,0,0,0,0,randonly selected as training point or test point
"2,6-dimethylhepta-2,5-dien-4-one",352.15,1,CC(C)=CC(=O)C=C(C)C,le15,0,0,0,0,randonly selected as training point or test point
"1,3,3a,4,5,6,7,7a-octahydroinden-2-one",352.75,1,O=C1CC2CCCCC2C1,le15,0,0,0,0,randonly selected as training point or test point
Isophorone,357.0,1,CC1=CC(=O)CC(C)(C)C1,le15,0,0,0,0,randonly selected as training point or test point
"Sulfide, ethyl phenyl (8CI)",347.05,1,CCSc1ccccc1,le15,0,0,0,0,randonly selected as training point or test point
methylsulfanylmethylbenzene,346.45,1,CSCc1ccccc1,le15,0,0,0,0,randonly selected as training point or test point
Benzylmethylsulfide,346.0,1,CSCc1ccccc1,le15,0,0,0,0,randonly selected as training point or test point
"Naphthalene, decahydro-",330.15,1,C1CCC2CCCCC2C1,le15,0,0,0,0,randonly selected as training point or test point
"4,7,7-trimethylbicyclo[2.2.1]heptane",305.55,1,CC12CCC(CC1)C2(C)C,le15,0,0,0,0,randonly selected as training point or test point
Pinane (8CI),309.15,1,CC1CCC2CC1C2(C)C,le15,0,0,0,0,randonly selected as training point or test point