compound,flashpoint,pure substance,smiles,source,is_silicon,is_metallic,is_tin,is_acid,data type
"2-Propenoic acid, pentyl ester",321.35,1,C=CC(=O)OCCCCC,le15,0,0,0,1,randonly selected as training point or test point
"3-Hexen-1-ol, acetate, (3Z)-",330.35,1,CC/C=C\CCOC(C)=O,le15,0,0,0,0,randonly selected as training point or test point
"Cyclohexanecarboxylic acid, methyl ester",331.85,1,COC(=O)C1CCCCC1,le15,0,0,0,1,randonly selected as training point or test point
2-cyclohexylacetic acid,397.05,1,O=C(O)CC1CCCCC1,le15,0,0,0,1,randonly selected as training point or test point
"2-Hexenoic acid, 2-ethyl-",594.05,1,CCCC=C(CC)C(=O)O,le15,0,0,0,1,randonly selected as training point or test point
"octane-4,5-dione",329.65,1,CCCC(=O)C(=O)CCC,le15,0,0,0,0,randonly selected as training point or test point
"2-Butenoic acid, 2-methyl-, 1-methylethyl ester, (E)- (9CI)",328.05,1,C/C=C(\C)C(=O)OC(C)C,le15,0,0,0,1,randonly selected as training point or test point
ethyl (E)-hex-3-enoate,332.55,1,CC/C=C/CC(=O)OCC,le15,0,0,0,0,randonly selected as training point or test point
"2,5-dimethylhexane-3,4-dione",323.65,1,CC(C)C(=O)C(=O)C(C)C,le15,0,0,0,0,randonly selected as training point or test point
"Urea, (1-methylcyclopentyl)-",360.95,1,CC1(NC(N)=O)CCCC1,le15,0,0,0,0,randonly selected as training point or test point
"benzene-1,2-dithiol",385.85,1,Sc1ccccc1S,le15,0,0,0,0,randonly selected as training point or test point
"benzene-1,2-dithiol",381.75,1,Sc1ccccc1S,le15,0,0,0,0,randonly selected as training point or test point
"4-Heptanone, 2,6-dimethyl-",317.85,1,CC(C)CC(=O)CC(C)C,le15,0,0,0,0,randonly selected as training point or test point
"Cyclohexanol, 3,3,5-trimethyl-",354.15,1,CC1CC(O)CC(C)(C)C1,le15,0,0,0,0,randonly selected as training point or test point
"2,2,4,4-tetramethylpentan-3-one",305.95,1,CC(C)(C)C(=O)C(C)(C)C,le15,0,0,0,0,randonly selected as training point or test point
nonan-3-one,340.95,1,CCCCCCC(=O)CC,le15,0,0,0,0,randonly selected as training point or test point
nonan-4-one,334.55,1,CCCCCC(=O)CCC,le15,0,0,0,0,randonly selected as training point or test point
"Cyclohexanol, 4-(1-methylethyl)-",353.95,1,CC(C)C1CCC(O)CC1,le15,0,0,0,0,randonly selected as training point or test point
"Hexanal, 3,5,5-trimethyl-",319.85,1,CC(CC=O)CC(C)(C)C,le15,0,0,0,0,randonly selected as training point or test point
"5-Hepten-2-ol, 2,6-dimethyl-",363.25,1,CC(C)=CCCC(C)(C)O,le15,0,0,0,0,randonly selected as training point or test point
"(3S,5S)-3,5-dimethylheptan-4-one",317.85,1,CC[C@H](C)C(=O)[C@@H](C)CC,le15,0,0,0,0,randonly selected as training point or test point
7-methyloctan-4-one,330.75,1,CCCC(=O)CCC(C)C,le15,0,0,0,0,randonly selected as training point or test point
non-1-en-3-ol,342.65,1,C=CC(O)CCCCCC,le15,0,0,0,0,randonly selected as training point or test point
"3,3,5-trimethylcyclohexan-1-ol",346.35,1,CC1CC(O)CC(C)(C)C1,le15,0,0,0,0,randonly selected as training point or test point
"Cyclohexanol, 3,3,5-trimethyl-, (1R,5R)-rel-",361.15,1,C[C@H]1C[C@@H](O)CC(C)(C)C1,le15,0,0,0,0,randonly selected as training point or test point
5nonanone,333.0,1,CCCCC(=O)CCCC,le15,0,0,0,0,randonly selected as training point or test point
Diisobutylketone,322.0,1,CC(C)CC(=O)CC(C)C,le15,0,0,0,0,randonly selected as training point or test point
"1,3-Cyclohexanebis(methylamine) (8CI)",379.15,1,NCC1CCCC(CN)C1,le15,0,0,0,0,randonly selected as training point or test point
"Octane, 2,7-dimethyl-",354.45,1,CC(C)CCCCC(C)C,le15,0,0,0,0,randonly selected as training point or test point
"2,5,5-trimethylheptane",312.85,1,CCC(C)(C)CCC(C)C,le15,0,0,0,0,randonly selected as training point or test point
"2,4,6-trimethylheptane",310.25,1,CC(C)CC(C)CC(C)C,le15,0,0,0,0,randonly selected as training point or test point
4-propylheptane,308.35,1,CCCC(CCC)CCC,le15,0,0,0,0,randonly selected as training point or test point
"2,4,4-trimethylheptane",311.65,1,CCCC(C)(C)CC(C)C,le15,0,0,0,0,randonly selected as training point or test point
"2,4-dimethyloctane",351.65,1,CCCCC(C)CC(C)C,le15,0,0,0,0,randonly selected as training point or test point
"3,3-dimethyloctane",316.65,1,CCCCCC(C)(C)CC,le15,0,0,0,0,randonly selected as training point or test point
5-ethyl-2-methylheptane,355.15,1,CCC(CC)CCC(C)C,le15,0,0,0,0,randonly selected as training point or test point
"2,2,3,3-tetramethylhexane",316.85,1,CCCC(C)(C)C(C)(C)C,le15,0,0,0,0,randonly selected as training point or test point
3-ethyl-2-methylheptane,358.05,1,CCCCC(CC)C(C)C,le15,0,0,0,0,randonly selected as training point or test point
5-methylnonane,310.35,1,CCCCC(C)CCCC,le15,0,0,0,0,randonly selected as training point or test point
"2,2-Dimethyloctane",314.05,1,CCCCCCC(C)(C)C,le15,0,0,0,0,randonly selected as training point or test point
"3,4-dimethyloctane",359.65,1,CCCCC(C)C(C)CC,le15,0,0,0,0,randonly selected as training point or test point
"3,5-dimethyloctane",354.15,1,CCCC(C)CC(C)CC,le15,0,0,0,0,randonly selected as training point or test point
"3,6-dimethyloctane",356.65,1,CCC(C)CCC(C)CC,le15,0,0,0,0,randonly selected as training point or test point
"4,5-dimethyloctane",359.05,1,CCCC(C)C(C)CCC,le15,0,0,0,0,randonly selected as training point or test point
"2,2,4,5-tetramethylhexane",309.55,1,CC(C)C(C)CC(C)(C)C,le15,0,0,0,0,randonly selected as training point or test point
3-ethyl-3-methylheptane,318.35,1,CCCCC(C)(CC)CC,le15,0,0,0,0,randonly selected as training point or test point
"3,4-diethylhexane",358.95,1,CCC(CC)C(CC)CC,le15,0,0,0,0,randonly selected as training point or test point
"2,4,5-trimethylheptane",313.85,1,CCC(C)C(C)CC(C)C,le15,0,0,0,0,randonly selected as training point or test point
"3,3,4-trimethylheptane",317.55,1,CCCC(C)C(C)(C)CC,le15,0,0,0,0,randonly selected as training point or test point
3-ethyl-5-methylheptane,355.85,1,CCC(C)CC(CC)CC,le15,0,0,0,0,randonly selected as training point or test point
"2,2,5,5-tetramethylhexane",304.75,1,CC(C)(C)CCC(C)(C)C,le15,0,0,0,0,randonly selected as training point or test point
"2,6-dimethyloctane",355.55,1,CCC(C)CCCC(C)C,le15,0,0,0,0,randonly selected as training point or test point
"4,4-dimethyloctane",314.95,1,CCCCC(C)(C)CCC,le15,0,0,0,0,randonly selected as training point or test point
4methylnonane,311.0,1,CCCCCC(C)CCC,le15,0,0,0,0,randonly selected as training point or test point
"p-Benzoquinone, 2-chloro- (8CI)",356.35,1,O=C1C=CC(=O)C(Cl)=C1,le15,0,0,0,0,randonly selected as training point or test point
"Phenol, 4-chloro-3-methyl-",366.55,1,Cc1cc(O)ccc1Cl,le15,0,0,0,0,randonly selected as training point or test point
2-chloro-6-methylphenol,348.15,1,Cc1cccc(Cl)c1O,le15,0,0,0,0,randonly selected as training point or test point
"Phenol, 2-chloro-5-methyl-",354.15,1,Cc1ccc(Cl)c(O)c1,le15,0,0,0,0,randonly selected as training point or test point
"Anisole, p-chloro- (8CI)",345.45,1,COc1ccc(Cl)cc1,le15,0,0,0,0,randonly selected as training point or test point
1-chloro-2-methoxybenzene,349.15,1,COc1ccccc1Cl,le15,0,0,0,0,randonly selected as training point or test point
"Benzenemethanol, 4-chloro- (9CI)",343.15,1,OCc1ccc(Cl)cc1,le15,0,0,0,0,randonly selected as training point or test point
"Phenol, 4-chloro-2-methyl-",363.25,1,Cc1cc(Cl)ccc1O,le15,0,0,0,0,randonly selected as training point or test point
3-chloro-2-methylphenol,357.95,1,Cc1c(O)cccc1Cl,le15,0,0,0,0,randonly selected as training point or test point
(2-chlorophenyl)methanol,368.55,1,OCc1ccccc1Cl,le15,0,0,0,0,randonly selected as training point or test point
2-chloro-3-methylphenol,351.25,1,Cc1cccc(O)c1Cl,le15,0,0,0,0,randonly selected as training point or test point
3-chloro-4-methylphenol,361.65,1,Cc1ccc(O)cc1Cl,le15,0,0,0,0,randonly selected as training point or test point
3-Chlorobenzyl alcohol,368.55,1,OCc1cccc(Cl)c1,le15,0,0,0,0,randonly selected as training point or test point
1-chloro-3-methoxybenzene,346.45,1,COc1cccc(Cl)c1,le15,0,0,0,0,randonly selected as training point or test point
2-chloro-4-methylphenol,359.25,1,Cc1ccc(O)c(Cl)c1,le15,0,0,0,0,randonly selected as training point or test point
"1,2-Benzenediamine, 4-chloro-",408.55,1,Nc1ccc(Cl)cc1N,le15,0,0,0,0,randonly selected as training point or test point
"1,3-Benzenediamine, 4-chloro-",407.55,1,Nc1ccc(Cl)c(N)c1,le15,0,0,0,0,randonly selected as training point or test point
chloro(phenyl)silicon,327.05,1,Cl[Si]c1ccccc1,le15,1,1,0,0,randonly selected as training point or test point
"Carbonochloridic acid, 2-chloroethyl ester",343.15,1,O=C(Cl)OCCCl,le15,0,0,0,1,randonly selected as training point or test point
"Propanoic acid, 2,3-dichloro- (9CI)",358.95,1,O=C(O)C(Cl)CCl,le15,0,0,0,1,randonly selected as training point or test point
"1,2-dichloro-1-ethoxyethane",316.45,1,CCOC(Cl)CCl,le15,0,0,0,0,randonly selected as training point or test point
chloro-(chloromethyl)-dimethylsilane,295.15,1,C[Si](C)(Cl)CCl,le15,1,1,0,0,randonly selected as training point or test point
"2,4-Oxazolidinedione, 3,5,5-trimethyl-",321.15,1,CN1C(=O)OC(C)(C)C1=O,le15,0,0,0,0,randonly selected as training point or test point
2-Naphthalenamine,430.25,1,Nc1ccc2ccccc2c1,le15,0,0,0,0,randonly selected as training point or test point
"Quinoline, 6-methyl-",382.15,1,Cc1ccc2ncccc2c1,le15,0,0,0,0,randonly selected as training point or test point
"Quinoline, 8-methyl-",377.15,1,Cc1cccc2cccnc12,le15,0,0,0,0,randonly selected as training point or test point
"Quinoline, 7-methyl-",383.15,1,Cc1ccc2cccnc2c1,le15,0,0,0,0,randonly selected as training point or test point
1-phenylpyrrole,368.45,1,c1ccc(-n2cccc2)cc1,le15,0,0,0,0,randonly selected as training point or test point
3-methylisoquinoline,379.85,1,Cc1cc2ccccc2cn1,le15,0,0,0,0,randonly selected as training point or test point
1-methylisoquinoline,379.85,1,Cc1nccc2ccccc12,le15,0,0,0,0,randonly selected as training point or test point
2-phenyl-1H-pyrrole,397.75,1,c1ccc(-c2ccc[nH]2)cc1,le15,0,0,0,0,randonly selected as training point or test point
"Quinoline, 5-methyl-",377.55,1,Cc1cccc2ncccc12,le15,0,0,0,0,randonly selected as training point or test point
6-methylisoquinoline,385.45,1,Cc1ccc2cnccc2c1,le15,0,0,0,0,randonly selected as training point or test point
"Quinoline, 2-methyl-",352.55,1,Cc1ccc2ccccc2n1,le15,0,0,0,0,randonly selected as training point or test point
1-Naphthalenamine,425.25,1,Nc1cccc2ccccc12,le15,0,0,0,0,randonly selected as training point or test point
"Quinoline, 4-methyl-",379.25,1,Cc1ccnc2ccccc12,le15,0,0,0,0,randonly selected as training point or test point
"Acrylic acid, 3-(dimethylamino)-, ethyl ester, (E)-",342.05,1,CCOC(=O)/C=C/N(C)C,le15,0,0,0,1,randonly selected as training point or test point
"2-Propenoic acid, 2-(dimethylamino)ethyl ester",302.15,1,C=CC(=O)OCCN(C)C,le15,0,0,0,1,randonly selected as training point or test point
"N,N-diethylbutanamide",351.35,1,CCCC(=O)N(CC)CC,le15,0,0,0,0,randonly selected as training point or test point
"N,N-dipropylacetamide",351.35,1,CCCN(CCC)C(C)=O,le15,0,0,0,0,randonly selected as training point or test point
"Ethanol, 2-(cyclohexylamino)-",390.75,1,OCCNC1CCCCC1,le15,0,0,0,0,randonly selected as training point or test point
"Pentanamide, 2-ethyl-3-methyl-",392.95,1,CCC(C)C(CC)C(N)=O,le15,0,0,0,0,randonly selected as training point or test point
4-Isobutylmorpholine,322.95,1,CC(C)CN1CCOCC1,le15,0,0,0,0,randonly selected as training point or test point
1-piperidin-2-ylpropan-1-ol,355.45,1,CCC(O)C1CCCCN1,le15,0,0,0,0,randonly selected as training point or test point
"Morpholine, 4-butyl-",325.05,1,CCCCN1CCOCC1,le15,0,0,0,0,randonly selected as training point or test point
"Valeramide, 2-propyl-",393.05,1,CCCC(CCC)C(N)=O,le15,0,0,0,0,randonly selected as training point or test point
"Hexane, 1-isothiocyanato-",363.75,1,CCCCCCN=C=S,le15,0,0,0,0,randonly selected as training point or test point
"1-Propanamine, N,N-dipropyl-",309.85,1,CCCN(CCC)CCC,le15,0,0,0,0,randonly selected as training point or test point
"1-Butanamine, N-butyl-N-methyl-",315.35,1,CCCCN(C)CCCC,le15,0,0,0,0,randonly selected as training point or test point
"Ethane, 1-bromo-2-chloro-",282.65,1,ClCCBr,le15,0,0,0,0,randonly selected as training point or test point
"Hydroxylamine, N-(p-chlorophenyl)- (8CI)",379.15,1,ONc1ccc(Cl)cc1,le15,0,0,0,0,randonly selected as training point or test point
2-chloro-6-methoxypyridine,349.25,1,COc1cccc(Cl)n1,le15,0,0,0,0,randonly selected as training point or test point
"2-Pyrimidinamine, 4-chloro-6-methyl- (9CI)",424.15,1,Cc1cc(Cl)nc(N)n1,le15,0,0,0,0,randonly selected as training point or test point
"Ethane, 1,1-dichloro-1-nitro-",304.85,1,CC(Cl)(Cl)[N+](=O)[O-],le15,0,0,0,0,randonly selected as training point or test point
"p-Dioxane-2,5-dione, 3,6-dimethyl- (8CI)",423.75,1,CC1OC(=O)C(C)OC1=O,le15,0,0,0,0,randonly selected as training point or test point
"Piperazine, 1,4-dinitroso-",472.55,1,O=NN1CCN(N=O)CC1,le15,0,0,0,0,randonly selected as training point or test point
"4,6(1H,5H)-Pyrimidinedione, dihydro-2-thioxo-",507.15,1,O=C1CC(=O)NC(=S)N1,le15,0,0,0,0,randonly selected as training point or test point
1-Naphthalenol,417.15,1,Oc1cccc2ccccc12,le15,0,0,0,0,randonly selected as training point or test point
"2-Propenoic acid, 2-ethoxyethyl ester",325.95,1,C=CC(=O)OCCOCC,le15,0,0,0,1,randonly selected as training point or test point
"Pentanoic acid, 4-oxo-, ethyl ester",351.05,1,CCOC(=O)CCC(C)=O,le15,0,0,0,1,randonly selected as training point or test point
propan-2-yl 3-oxobutanoate,342.05,1,CC(=O)CC(=O)OC(C)C,le15,0,0,0,0,randonly selected as training point or test point
"Quinoline, 8-amino-",444.65,1,Nc1cccc2cccnc12,le15,0,0,0,0,randonly selected as training point or test point
"Quinoline, 6-amino- (8CI)",455.05,1,Nc1ccc2ncccc2c1,le15,0,0,0,0,randonly selected as training point or test point
"Quinoline, 3-amino-",440.95,1,Nc1cnc2ccccc2c1,le15,0,0,0,0,randonly selected as training point or test point
7-Quinolinamine (9CI),449.25,1,Nc1ccc2cccnc2c1,le15,0,0,0,0,randonly selected as training point or test point
"Quinoline, 2-amino-",436.75,1,Nc1ccc2ccccc2n1,le15,0,0,0,0,randonly selected as training point or test point
ethyl 2-methyl-3-oxobutanoate,335.15,1,CCOC(=O)C(C)C(C)=O,le15,0,0,0,0,randonly selected as training point or test point
quinolin-5-amine,444.65,1,Nc1cccc2ncccc12,le15,0,0,0,0,randonly selected as training point or test point
oxolan-2-ylmethyl acetate,357.55,1,CC(=O)OCC1CCCO1,le15,0,0,0,0,randonly selected as training point or test point
2-phenyl-1H-imidazole,453.55,1,c1ccc(-c2ncc[nH]2)cc1,le15,0,0,0,0,randonly selected as training point or test point
"2-Pentanone, 5-(acetyloxy)- (9CI)",358.55,1,CC(=O)CCCOC(C)=O,le15,0,0,0,0,randonly selected as training point or test point
ethyl 2-oxopentanoate,344.55,1,CCCC(=O)C(=O)OCC,le15,0,0,0,0,randonly selected as training point or test point
4-Aminoquinoline,454.35,1,Nc1ccnc2ccccc12,le15,0,0,0,0,randonly selected as training point or test point
2-hydroxypropyl 2-methylprop-2-enoate,360.05,1,C=C(C)C(=O)OCC(C)O,le15,0,0,0,0,randonly selected as training point or test point
1-phenylimidazole,393.85,1,c1ccc(-n2ccnc2)cc1,le15,0,0,0,0,randonly selected as training point or test point
"Quinoxaline, 2-methyl-",380.15,1,Cc1cnc2ccccc2n1,le15,0,0,0,0,randonly selected as training point or test point
methyl 2-ethyl-3-oxobutanoate,369.25,1,CCC(C(C)=O)C(=O)OC,le15,0,0,0,0,randonly selected as training point or test point
"1-Hexanol, 2,3-epoxy-2-ethyl-",347.05,1,CCCC1OC1(CC)CO,le15,0,0,0,0,randonly selected as training point or test point
"Isobutyric acid, butyl ester (6CI,7CI,8CI)",319.85,1,CCCCOC(=O)C(C)C,le15,0,0,0,1,randonly selected as training point or test point
"Pentanoic acid, 2-propyl-",384.15,1,CCCC(CCC)C(=O)O,le15,0,0,0,1,randonly selected as training point or test point
"Heptanoic acid, methyl ester",325.15,1,CCCCCCC(=O)OC,le15,0,0,0,1,randonly selected as training point or test point
"2-Pentanol, 4-methyl-, acetate",318.15,1,CC(=O)OC(C)CC(C)C,le15,0,0,0,0,randonly selected as training point or test point
"Butanoic acid, butyl ester",322.55,1,CCCCOC(=O)CCC,le15,0,0,0,1,randonly selected as training point or test point
heptyl formate,333.15,1,CCCCCCCOC=O,le15,0,0,0,0,randonly selected as training point or test point
"Hexanoic acid, ethyl ester",322.55,1,CCCCCC(=O)OCC,le15,0,0,0,1,randonly selected as training point or test point
Octanoic acid,380.529,1,CCCCCCCC(=O)O,le15,0,0,0,1,randonly selected as training point or test point
"Hexanoic acid, 2-ethyl-",389.75,1,CCCCC(CC)C(=O)O,le15,0,0,0,1,randonly selected as training point or test point
propyl 3-methylbutanoate,319.85,1,CCCOC(=O)CC(C)C,le15,0,0,0,0,randonly selected as training point or test point
2-Ethoxycyclohexan-1-ol,353.55,1,CCOC1CCCCC1O,le15,0,0,0,0,randonly selected as training point or test point
"Ethane, 1,2-diisothiocyanato- (9CI)",395.15,1,S=C=NCCN=C=S,le15,0,0,0,0,randonly selected as training point or test point
[3-(hydroxymethyl)cyclohexyl]methanol,404.65,1,OCC1CCCC(CO)C1,le15,0,0,0,0,randonly selected as training point or test point
"Butane, 1-(2-(ethenyloxy)ethoxy)- (9CI)",315.05,1,C=COCCOCCCC,le15,0,0,0,0,randonly selected as training point or test point
"1,1-diethoxybut-2-ene",312.05,1,CC=CC(OCC)OCC,le15,0,0,0,0,randonly selected as training point or test point
propan-2-yl 3-methylbutanoate,307.85,1,CC(C)CC(=O)OC(C)C,le15,0,0,0,0,randonly selected as training point or test point
"Propanoic acid, 2-methyl-, 2-methylpropyl ester",307.85,1,CC(C)COC(=O)C(C)C,le15,0,0,0,1,randonly selected as training point or test point
"Valeric acid, propyl ester (8CI)",325.55,1,CCCCC(=O)OCCC,le15,0,0,0,1,randonly selected as training point or test point
"Acetic acid, hexyl ester",310.35,1,CCCCCCOC(C)=O,le15,0,0,0,1,randonly selected as training point or test point
"Butanoic acid, 2-methylpropyl ester",318.75,1,CCCC(=O)OCC(C)C,le15,0,0,0,1,randonly selected as training point or test point
"Acetic acid, 2-ethylbutyl ester",325.95,1,CCC(CC)COC(C)=O,le15,0,0,0,1,randonly selected as training point or test point
ethyl 4-methylpentanoate,319.85,1,CCOC(=O)CCC(C)C,le15,0,0,0,0,randonly selected as training point or test point
Methylheptanoate,325.0,1,CCCCCCC(=O)OC,le15,0,0,0,0,randonly selected as training point or test point
"Morpholine, 4-(3-aminopropyl)- (8CI)",371.15,1,NCCCN1CCOCC1,le15,0,0,0,0,randonly selected as training point or test point
"1,3-dipropylurea",395.45,1,CCCNC(=O)NCCC,le15,0,0,0,0,randonly selected as training point or test point
4-ethylheptan-4-ol,344.25,1,CCCC(O)(CC)CCC,le15,0,0,0,0,randonly selected as training point or test point
nonan-5-ol,352.65,1,CCCCC(O)CCCC,le15,0,0,0,0,randonly selected as training point or test point
2-methyloctan-2-ol,344.25,1,CCCCCCC(C)(C)O,le15,0,0,0,0,randonly selected as training point or test point
"3,6-dimethylheptan-3-ol",343.15,1,CCC(C)(O)CCC(C)C,le15,0,0,0,0,randonly selected as training point or test point
"3,5,5-trimethylhexan-1-ol",353.15,1,CC(CCO)CC(C)(C)C,le15,0,0,0,0,randonly selected as training point or test point
3-ethylheptan-1-ol,352.65,1,CCCCC(CC)CCO,le15,0,0,0,0,randonly selected as training point or test point
"3-Octanol, 3-methyl-",344.25,1,CCCCCC(C)(O)CC,le15,0,0,0,0,randonly selected as training point or test point
"2,2,3-trimethylhexan-3-ol",331.05,1,CCCC(C)(O)C(C)(C)C,le15,0,0,0,0,randonly selected as training point or test point
"2-Heptanol, 2,6-dimethyl-",336.15,1,CC(C)CCCC(C)(C)O,le15,0,0,0,0,randonly selected as training point or test point
"2,6-dimethylheptan-3-ol",342.95,1,CC(C)CCC(O)C(C)C,le15,0,0,0,0,randonly selected as training point or test point
"2,4-dimethylheptan-4-ol",343.15,1,CCCC(C)(O)CC(C)C,le15,0,0,0,0,randonly selected as training point or test point
"3,5-dimethylheptan-4-ol",342.95,1,CCC(C)C(O)C(C)CC,le15,0,0,0,0,randonly selected as training point or test point
4-methyloctan-4-ol,344.25,1,CCCCC(C)(O)CCC,le15,0,0,0,0,randonly selected as training point or test point
"4-Heptanol, 2,6-dimethyl-",339.15,1,CC(C)CC(O)CC(C)C,le15,0,0,0,0,randonly selected as training point or test point
Nonyl alcohol,370.92800000000005,1,CCCCCCCCCO,le15,0,0,0,0,randonly selected as training point or test point