compound,flashpoint,pure substance,smiles,source,is_silicon,is_metallic,is_tin,is_acid,data type
bicyclohexyl,365.0,1,C1(CCCCC1)C1CCCCC1,carroll11,0,0,0,0,randonly selected as training point or test point
"2,2,4,4,6,8,8-heptamethylnonane",368.0,1,CC(C)(CC(CC(CC(C)(C)C)C)(C)C)C,carroll11,0,0,0,0,randonly selected as training point or test point
1-pentene,222.0,1,C=CCCC,carroll11,0,0,0,0,randonly selected as training point or test point
1-hexene,247.0,1,C=CCCCC,carroll11,0,0,0,0,randonly selected as training point or test point
1-heptene,264.0,1,C=CCCCCC,carroll11,0,0,0,0,randonly selected as training point or test point
1-nonene,298.0,1,C=CCCCCCCC,carroll11,0,0,0,0,randonly selected as training point or test point
1-decene,311.0,1,C=CCCCCCCCC,carroll11,0,0,0,0,randonly selected as training point or test point
1-undecene,327.0,1,C=CCCCCCCCCC,carroll11,0,0,0,0,randonly selected as training point or test point
1-dodecene,346.0,1,C=CCCCCCCCCCC,carroll11,0,0,0,0,randonly selected as training point or test point
1-tridecene,365.0,1,C=CCCCCCCCCCCC,carroll11,0,0,0,0,randonly selected as training point or test point
1-tetradecene,370.0,1,C=CCCCCCCCCCCCC,carroll11,0,0,0,0,randonly selected as training point or test point
1-pentadecene,386.0,1,C=CCCCCCCCCCCCCC,carroll11,0,0,0,0,randonly selected as training point or test point
1-hexadecene,402.0,1,C=CCCCCCCCCCCCCCC,carroll11,0,0,0,0,randonly selected as training point or test point
1-heptadecene,414.0,1,C=CCCCCCCCCCCCCCCC,carroll11,0,0,0,0,randonly selected as training point or test point
1-octadecene,427.0,1,C=CCCCCCCCCCCCCCCCC,carroll11,0,0,0,0,randonly selected as training point or test point
cis-2-pentene,227.0,1,C\C=C/CC,carroll11,0,0,0,0,randonly selected as training point or test point
trans-2-pentene,228.0,1,C\C=C\CC,carroll11,0,0,0,0,randonly selected as training point or test point
cis-3-hexene,248.0,1,CC\C=C/CC,carroll11,0,0,0,0,randonly selected as training point or test point
trans-3-hexene,248.0,1,CC\C=C\CC,carroll11,0,0,0,0,randonly selected as training point or test point
trans-2-hexene,248.0,1,C\C=C\CCC,carroll11,0,0,0,0,randonly selected as training point or test point
cis-2-hexene,248.0,1,C\C=C/CCC,carroll11,0,0,0,0,randonly selected as training point or test point
cis-3-heptene,264.0,1,CC\C=C/CCC,carroll11,0,0,0,0,randonly selected as training point or test point
trans-3-heptene,266.0,1,CC\C=C\CCC,carroll11,0,0,0,0,randonly selected as training point or test point
trans-2-heptene,267.0,1,C\C=C\CCCC,carroll11,0,0,0,0,randonly selected as training point or test point
cis-2-heptene,267.0,1,C\C=C/CCCC,carroll11,0,0,0,0,randonly selected as training point or test point
trans-4-octene,281.0,1,CCC\C=C\CCC,carroll11,0,0,0,0,randonly selected as training point or test point
trans-3-octene,282.0,1,CC\C=C\CCCC,carroll11,0,0,0,0,randonly selected as training point or test point
cis-4-octene,290.0,1,CCC\C=C/CCC,carroll11,0,0,0,0,randonly selected as training point or test point
cis-3-octene,287.0,1,CC\C=C/CCCC,carroll11,0,0,0,0,randonly selected as training point or test point
trans-2-octene,287.0,1,C\C=C\CCCCC,carroll11,0,0,0,0,randonly selected as training point or test point
2-methyl-1-butene,226.0,1,CC(=C)CC,carroll11,0,0,0,0,randonly selected as training point or test point
2-methyl-2-butene,228.0,1,CC(C)=CC,carroll11,0,0,0,0,randonly selected as training point or test point
cyclopentene,243.0,1,C1=CCCC1,carroll11,0,0,0,0,randonly selected as training point or test point
4-methyl-1-pentene,241.0,1,CC(CC=C)C,carroll11,0,0,0,0,randonly selected as training point or test point
3-methyl-1-pentene,240.0,1,CC(C=C)CC,carroll11,0,0,0,0,randonly selected as training point or test point
cis-4-methyl-2-pentene,240.0,1,CC(\C=C/C)C,carroll11,0,0,0,0,randonly selected as training point or test point
trans-4-methyl-2-pentene,246.0,1,CC(/C=C/C)C,carroll11,0,0,0,0,randonly selected as training point or test point
2-methyl-1-pentene,246.0,1,CC(=C)CCC,carroll11,0,0,0,0,randonly selected as training point or test point
2-ethyl-1-butene,247.0,1,C(C)C(=C)CC,carroll11,0,0,0,0,randonly selected as training point or test point
"2,3-dimethyl-2-butene",253.0,1,CC(C)=C(C)C,carroll11,0,0,0,0,randonly selected as training point or test point
methylenecyclopentane,255.0,1,C=C1CCCC1,carroll11,0,0,0,0,randonly selected as training point or test point
1-methylcyclopentene,254.0,1,CC1=CCCC1,carroll11,0,0,0,0,randonly selected as training point or test point
"2,3,3-trimethyl-1-butene",256.0,1,CC(=C)C(C)(C)C,carroll11,0,0,0,0,randonly selected as training point or test point
cyclohexene,256.0,1,C1=CCCCC1,carroll11,0,0,0,0,randonly selected as training point or test point
3-methyl-1-hexene,255.0,1,CC(C=C)CCC,carroll11,0,0,0,0,randonly selected as training point or test point
"2,3-dimethyl-1-pentene",256.0,1,CC(=C)C(CC)C,carroll11,0,0,0,0,randonly selected as training point or test point
3-ethyl-1-pentene,256.0,1,C(C)C(C=C)CC,carroll11,0,0,0,0,randonly selected as training point or test point
5-methyl-1-hexene,263.0,1,CC(CCC=C)C,carroll11,0,0,0,0,randonly selected as training point or test point
4-methyl-1-hexene,258.0,1,CC(CC=C)CC,carroll11,0,0,0,0,randonly selected as training point or test point
2-methyl-1-hexene,265.0,1,CC(=C)CCCC,carroll11,0,0,0,0,randonly selected as training point or test point
2-ethyl-1-pentene,263.0,1,C(C)C(=C)CCC,carroll11,0,0,0,0,randonly selected as training point or test point
3-ethyl-2-pentene,267.0,1,C(C)C(=CC)CC,carroll11,0,0,0,0,randonly selected as training point or test point
2-norbornene,259.0,1,C12C=CC(CC1)C2,carroll11,0,0,0,0,randonly selected as training point or test point
"2,4,4-trimethyl-1-pentene",269.0,1,CC(=C)CC(C)(C)C,carroll11,0,0,0,0,randonly selected as training point or test point
4-methylcyclohexene,272.0,1,CC1CC=CCC1,carroll11,0,0,0,0,randonly selected as training point or test point
methylenecyclohexane,271.0,1,C=C1CCCCC1,carroll11,0,0,0,0,randonly selected as training point or test point
3-methylcyclohexene,270.0,1,CC1C=CCCC1,carroll11,0,0,0,0,randonly selected as training point or test point
"2,4,4-trimethyl-2-pentene",272.0,1,CC(C)=CC(C)(C)C,carroll11,0,0,0,0,randonly selected as training point or test point
1-methylcyclohexene,272.0,1,CC1=CCCCC1,carroll11,0,0,0,0,randonly selected as training point or test point
3-ethyl-1-hexene,274.0,1,C(C)C(C=C)CCC,carroll11,0,0,0,0,randonly selected as training point or test point
4-methyl-1-heptene,275.0,1,CC(CC=C)CCC,carroll11,0,0,0,0,randonly selected as training point or test point
2-methyl-1-heptene,283.0,1,CC(=C)CCCCC,carroll11,0,0,0,0,randonly selected as training point or test point
2-methyl-2-heptene,282.0,1,CC(C)=CCCCC,carroll11,0,0,0,0,randonly selected as training point or test point
allylcyclopentane,285.0,1,C(C=C)C1CCCC1,carroll11,0,0,0,0,randonly selected as training point or test point
vinylcyclohexane,294.0,1,C(=C)C1CCCCC1,carroll11,0,0,0,0,randonly selected as training point or test point
7-methyl-1-octene,291.0,1,CC(CCCCC=C)C,carroll11,0,0,0,0,randonly selected as training point or test point
2-carene,311.0,1,C12C=C(CCC1C2(C)C)C,carroll11,0,0,0,0,randonly selected as training point or test point
isoprene,225.0,1,C=CC(C)=C,carroll11,0,0,0,0,randonly selected as training point or test point
"2,3-dimethyl-1,3-butadiene",251.0,1,CC(=C)C(=C)C,carroll11,0,0,0,0,randonly selected as training point or test point
"4-methyl-1,3-pentadiene",255.0,1,CC(=CC=C)C,carroll11,0,0,0,0,randonly selected as training point or test point
"1,6-heptadiene",263.0,1,C=CCCCC=C,carroll11,0,0,0,0,randonly selected as training point or test point
"1,7-octadiene",278.0,1,C=CCCCCC=C,carroll11,0,0,0,0,randonly selected as training point or test point
"2,5-dimethyl-2,4-hexadiene",297.0,1,CC(C)=CC=C(C)C,carroll11,0,0,0,0,randonly selected as training point or test point
"1,8-nonadiene",299.0,1,C=CCCCCCC=C,carroll11,0,0,0,0,randonly selected as training point or test point
"1,3-cyclohexadiene",257.0,1,C1=CC=CCC1,carroll11,0,0,0,0,randonly selected as training point or test point
"1,4-cyclohexadiene",262.0,1,C1=CCC=CC1,carroll11,0,0,0,0,randonly selected as training point or test point
4-vinyl-1-cyclohexene,289.0,1,C(=C)C1CC=CCC1,carroll11,0,0,0,0,randonly selected as training point or test point
"1,5-cyclooctadiene",308.0,1,C1=CCCC=CCC1,carroll11,0,0,0,0,randonly selected as training point or test point
"2,5-norbornadiene",262.0,1,C12C=CC(C=C1)C2,carroll11,0,0,0,0,randonly selected as training point or test point
5-ethylidene-2-norbornene,302.0,1,C(C)=C1C2C=CC(C1)C2,carroll11,0,0,0,0,randonly selected as training point or test point
"1,3,5,7-cyclooctatetraene",295.0,1,C1=CC=CC=CC=C1,carroll11,0,0,0,0,randonly selected as training point or test point
1-pentyne,239.0,1,C#CCCC,carroll11,0,0,0,0,randonly selected as training point or test point
1-hexyne,253.0,1,C#CCCCC,carroll11,0,0,0,0,randonly selected as training point or test point
1-heptyne,271.0,1,C#CCCCCC,carroll11,0,0,0,0,randonly selected as training point or test point
1-octyne,289.0,1,C#CCCCCCC,carroll11,0,0,0,0,randonly selected as training point or test point
1-nonyne,306.0,1,C#CCCCCCCC,carroll11,0,0,0,0,randonly selected as training point or test point
1-decyne,321.0,1,C#CCCCCCCCC,carroll11,0,0,0,0,randonly selected as training point or test point
1-undecyne,338.0,1,C#CCCCCCCCCC,carroll11,0,0,0,0,randonly selected as training point or test point
1-dodecyne,352.0,1,C#CCCCCCCCCCC,carroll11,0,0,0,0,randonly selected as training point or test point
1-tridecyne,366.0,1,C#CCCCCCCCCCCC,carroll11,0,0,0,0,randonly selected as training point or test point
2-pentyne,243.0,1,CC#CCC,carroll11,0,0,0,0,randonly selected as training point or test point
2-hexyne,263.0,1,CC#CCCC,carroll11,0,0,0,0,randonly selected as training point or test point
2-heptyne,281.0,1,CC#CCCCC,carroll11,0,0,0,0,randonly selected as training point or test point
2-octyne,297.0,1,CC#CCCCCC,carroll11,0,0,0,0,randonly selected as training point or test point
2-nonyne,312.0,1,CC#CCCCCCC,carroll11,0,0,0,0,randonly selected as training point or test point
2-decyne,326.0,1,CC#CCCCCCCC,carroll11,0,0,0,0,randonly selected as training point or test point
2-dodecyne,351.0,1,CC#CCCCCCCCCC,carroll11,0,0,0,0,randonly selected as training point or test point
3-hexyne,259.0,1,CCC#CCC,carroll11,0,0,0,0,randonly selected as training point or test point
3-heptyne,278.0,1,CCC#CCCC,carroll11,0,0,0,0,randonly selected as training point or test point
3-nonyne,311.0,1,CCC#CCCCCC,carroll11,0,0,0,0,randonly selected as training point or test point
4-nonyne,308.0,1,CCCC#CCCCC,carroll11,0,0,0,0,randonly selected as training point or test point
4-octyne,291.0,1,CCCC#CCCC,carroll11,0,0,0,0,randonly selected as training point or test point
3-decyne,325.0,1,CCC#CCCCCCC,carroll11,0,0,0,0,randonly selected as training point or test point
4-decyne,325.0,1,CCCC#CCCCCC,carroll11,0,0,0,0,randonly selected as training point or test point
4-undecyne,339.0,1,CCCC#CCCCCCC,carroll11,0,0,0,0,randonly selected as training point or test point
5-undecyne,339.0,1,CCCCC#CCCCCC,carroll11,0,0,0,0,randonly selected as training point or test point
"3,3-dimethyl-1-butyne",239.0,1,CC(C#C)(C)C,carroll11,0,0,0,0,randonly selected as training point or test point
4-methyl-1-pentyne,249.0,1,CC(CC#C)C,carroll11,0,0,0,0,randonly selected as training point or test point
"4,4-dimethyl-2-pentyne",263.0,1,CC(C#CC)(C)C,carroll11,0,0,0,0,randonly selected as training point or test point
5-methyl-1-hexyne,266.0,1,CC(CCC#C)C,carroll11,0,0,0,0,randonly selected as training point or test point
"1,6-heptadiyne",282.0,1,C#CCCCC#C,carroll11,0,0,0,0,randonly selected as training point or test point
"1,7-octadiyne",296.0,1,C#CCCCCC#C,carroll11,0,0,0,0,randonly selected as training point or test point
"1,8-nonadiyne",315.0,1,C#CCCCCCC#C,carroll11,0,0,0,0,randonly selected as training point or test point
benzene,262.0,1,C1=CC=CC=C1,carroll11,0,0,0,0,randonly selected as training point or test point
toluene,280.0,1,CC1=CC=CC=C1,carroll11,0,0,0,0,randonly selected as training point or test point
ethylbenzene,294.0,1,C(C)C1=CC=CC=C1,carroll11,0,0,0,0,randonly selected as training point or test point
propylbenzene,303.0,1,C(CC)C1=CC=CC=C1,carroll11,0,0,0,0,randonly selected as training point or test point
butylbenzene,323.0,1,C(CCC)C1=CC=CC=C1,carroll11,0,0,0,0,randonly selected as training point or test point
pentylbenzene,339.0,1,C(CCCC)C1=CC=CC=C1,carroll11,0,0,0,0,randonly selected as training point or test point
hexylbenzene,356.0,1,C(CCCCC)C1=CC=CC=C1,carroll11,0,0,0,0,randonly selected as training point or test point
heptylbenzene,368.0,1,C(CCCCCC)C1=CC=CC=C1,carroll11,0,0,0,0,randonly selected as training point or test point
octylbenzene,380.0,1,C(CCCCCCC)C1=CC=CC=C1,carroll11,0,0,0,0,randonly selected as training point or test point
nonylbenzene,390.0,1,C(CCCCCCCC)C1=CC=CC=C1,carroll11,0,0,0,0,randonly selected as training point or test point
undecylbenzene,417.0,1,C(CCCCCCCCCC)C1=CC=CC=C1,carroll11,0,0,0,0,randonly selected as training point or test point
p-xylene,298.0,1,C1(=CC=C(C=C1)C)C,carroll11,0,0,0,0,randonly selected as training point or test point
m-xylene,298.0,1,C1(=CC(=CC=C1)C)C,carroll11,0,0,0,0,randonly selected as training point or test point
o-xylene,303.0,1,C=1(C(=CC=CC1)C)C,carroll11,0,0,0,0,randonly selected as training point or test point
cumene,304.0,1,C1(=CC=CC=C1)C(C)C,carroll11,0,0,0,0,randonly selected as training point or test point
p-ethyltoluene,309.0,1,C(C)C1=CC=C(C)C=C1,carroll11,0,0,0,0,randonly selected as training point or test point
m-ethyltoluene,311.0,1,C(C)C=1C=C(C)C=CC1,carroll11,0,0,0,0,randonly selected as training point or test point
o-ethyltoluene,312.0,1,C(C)C1=C(C)C=CC=C1,carroll11,0,0,0,0,randonly selected as training point or test point
"1,3,5-trimethylbenzene",317.0,1,CC1=CC(=CC(=C1)C)C,carroll11,0,0,0,0,randonly selected as training point or test point
"1,2,4-trimethylbenzene",319.0,1,CC1=C(C=C(C=C1)C)C,carroll11,0,0,0,0,randonly selected as training point or test point
tert-butylbenzene,317.0,1,C(C)(C)(C)C1=CC=CC=C1,carroll11,0,0,0,0,randonly selected as training point or test point
isobutylbenzene,323.0,1,C(C(C)C)C1=CC=CC=C1,carroll11,0,0,0,0,randonly selected as training point or test point
m-isopropyltoluene,320.0,1,C(C)(C)C=1C=C(C)C=CC1,carroll11,0,0,0,0,randonly selected as training point or test point
"1,2,3-trimethylbenzene",324.0,1,CC1=C(C(=CC=C1)C)C,carroll11,0,0,0,0,randonly selected as training point or test point
p-isopropyltoluene,320.0,1,C(C)(C)C1=CC=C(C)C=C1,carroll11,0,0,0,0,randonly selected as training point or test point
o-isopropyltoluene,323.0,1,C(C)(C)C1=C(C)C=CC=C1,carroll11,0,0,0,0,randonly selected as training point or test point
m-diethylbenzene,324.0,1,C(C)C1=CC(=CC=C1)CC,carroll11,0,0,0,0,randonly selected as training point or test point
m-propyltoluene,325.0,1,C(CC)C=1C=C(C)C=CC1,carroll11,0,0,0,0,randonly selected as training point or test point
p-diethylbenzene,328.0,1,C(C)C1=CC=C(C=C1)CC,carroll11,0,0,0,0,randonly selected as training point or test point
o-diethylbenzene,328.0,1,C(C)C1=C(C=CC=C1)CC,carroll11,0,0,0,0,randonly selected as training point or test point
neopentylbenzene,323.0,1,C(C(C)(C)C)C1=CC=CC=C1,carroll11,0,0,0,0,randonly selected as training point or test point
"2-ethyl-1,4-dimethylbenzene",329.0,1,C(C)C1=C(C=CC(=C1)C)C,carroll11,0,0,0,0,randonly selected as training point or test point
"1-ethyl-2,4-dimethylbenzene",330.0,1,C(C)C1=C(C=C(C=C1)C)C,carroll11,0,0,0,0,randonly selected as training point or test point
"4-ethyl-1,2-dimethylbenzene",331.0,1,C(C)C1=CC(=C(C=C1)C)C,carroll11,0,0,0,0,randonly selected as training point or test point
1-ethyl-3-isopropylbenzene,336.0,1,C(C)C1=CC(=CC=C1)C(C)C,carroll11,0,0,0,0,randonly selected as training point or test point
"1-ethyl-2,3-dimethylbenzene",338.0,1,C(C)C1=C(C(=CC=C1)C)C,carroll11,0,0,0,0,randonly selected as training point or test point
1-phenyl-2-methylbutane,337.0,1,C1(=CC=CC=C1)CC(CC)C,carroll11,0,0,0,0,randonly selected as training point or test point
isopentylbenzene,335.0,1,C(CC(C)C)C1=CC=CC=C1,carroll11,0,0,0,0,randonly selected as training point or test point
"1,2,3,5-tetramethylbenzene",336.0,1,CC1=C(C(=CC(=C1)C)C)C,carroll11,0,0,0,0,randonly selected as training point or test point
"1,3-diisopropylbenzene",349.0,1,C(C)(C)C1=CC(=CC=C1)C(C)C,carroll11,0,0,0,0,randonly selected as training point or test point
"1,2,3,4-tetramethylbenzene",341.0,1,CC1=C(C(=C(C=C1)C)C)C,carroll11,0,0,0,0,randonly selected as training point or test point
2-phenyl-2-methylbutane,332.0,1,C1(=CC=CC=C1)C(C)(CC)C,carroll11,0,0,0,0,randonly selected as training point or test point
"1,2-dimethyl-3-propylbenzene",345.0,1,CC1=C(C(=CC=C1)CCC)C,carroll11,0,0,0,0,randonly selected as training point or test point
"1,4-diisopropylbenzene",349.0,1,C(C)(C)C1=CC=C(C=C1)C(C)C,carroll11,0,0,0,0,randonly selected as training point or test point
"1,2,3,4-tetrahydronaphthalene",344.0,1,C1CCCC2=CC=CC=C12,carroll11,0,0,0,0,randonly selected as training point or test point
cyclohexylbenzene,371.0,1,C1(CCCCC1)C1=CC=CC=C1,carroll11,0,0,0,0,randonly selected as training point or test point
(1-methylheptyl)benzene,373.0,1,CC(CCCCCC)C1=CC=CC=C1,carroll11,0,0,0,0,randonly selected as training point or test point
diphenylmethane,400.0,1,C1(=CC=CC=C1)CC1=CC=CC=C1,carroll11,0,0,0,0,randonly selected as training point or test point
ethylformate,254.0,1,C(C)OC=O,carroll11,0,0,0,0,randonly selected as training point or test point
propylformate,270.0,1,C(CC)OC=O,carroll11,0,0,0,0,randonly selected as training point or test point
butylformate,291.0,1,C(CCC)OC=O,carroll11,0,0,0,0,randonly selected as training point or test point
pentylformate,299.0,1,C(CCCC)OC=O,carroll11,0,0,0,0,randonly selected as training point or test point
hexylformate,317.0,1,C(CCCCC)OC=O,carroll11,0,0,0,0,randonly selected as training point or test point
heptylformate,333.0,1,C(CCCCCC)OC=O,carroll11,0,0,0,0,randonly selected as training point or test point
octylformate,342.0,1,C(CCCCCCC)OC=O,carroll11,0,0,0,0,randonly selected as training point or test point
nonylformate,361.0,1,C(CCCCCCCC)OC=O,carroll11,0,0,0,0,randonly selected as training point or test point
decylformate,373.0,1,C(CCCCCCCCC)OC=O,carroll11,0,0,0,0,randonly selected as training point or test point
isopropylformate,259.0,1,C(C)(C)OC=O,carroll11,0,0,0,0,randonly selected as training point or test point
tert-butylformate,264.0,1,C(C)(C)(C)OC=O,carroll11,0,0,0,0,randonly selected as training point or test point
isopentylformate,295.0,1,C(CC(C)C)OC=O,carroll11,0,0,0,0,randonly selected as training point or test point
isobutylformate,277.0,1,C(C(C)C)OC=O,carroll11,0,0,0,0,randonly selected as training point or test point
cyclohexylformate,324.0,1,C1(CCCCC1)C(=O)[O-],carroll11,0,0,0,0,randonly selected as training point or test point
methylacetate,260.0,1,COC(C)=O,carroll11,0,0,0,0,randonly selected as training point or test point
ethylacetate,269.0,1,C(C)OC(C)=O,carroll11,0,0,0,0,randonly selected as training point or test point
propylacetate,283.0,1,C(CC)OC(C)=O,carroll11,0,0,0,0,randonly selected as training point or test point
butylacetate,298.0,1,C(CCC)OC(C)=O,carroll11,0,0,0,0,randonly selected as training point or test point
pentylacetate,312.0,1,C(CCCC)OC(C)=O,carroll11,0,0,0,0,randonly selected as training point or test point
hexylacetate,328.0,1,C(CCCCC)OC(C)=O,carroll11,0,0,0,0,randonly selected as training point or test point
heptylacetate,340.0,1,C(CCCCCC)OC(C)=O,carroll11,0,0,0,0,randonly selected as training point or test point
octylacetate,355.0,1,C(CCCCCCC)OC(C)=O,carroll11,0,0,0,0,randonly selected as training point or test point
nonylacetate,364.0,1,C(CCCCCCCC)OC(C)=O,carroll11,0,0,0,0,randonly selected as training point or test point
decylacetate,377.0,1,C(CCCCCCCCC)OC(C)=O,carroll11,0,0,0,0,randonly selected as training point or test point