compound,flashpoint,pure substance,smiles,source,is_silicon,is_metallic,is_tin,is_acid,data type
"Ethanol, 2,2'-(ethylimino)bis-",397.05,1,CCN(CCO)CCO,le15,0,0,0,0,randonly selected as training point or test point
"2,2-diethoxyethanamine",318.15,1,CCOC(CN)OCC,le15,0,0,0,0,randonly selected as training point or test point
"Ethanol, 2-(2-(dimethylamino)ethoxy)-",344.75,1,CN(C)CCOCCO,le15,0,0,0,0,randonly selected as training point or test point
"1,3,4-Thiadiazole-2(3H)-thione, 5-amino-",373.45,1,Nc1n[nH]c(=S)s1,le15,0,0,0,0,randonly selected as training point or test point
"Propionaldehyde, 2-methyl-2-(methylthio)-, oxime",354.25,1,CSC(C)(C)C=NO,le15,0,0,0,0,randonly selected as training point or test point
"1-chloropyrrolidine-2,5-dione",348.25,1,O=C1CCC(=O)N1Cl,le15,0,0,0,0,randonly selected as training point or test point
"2,4,6-trifluoropyrimidine",308.85,1,Fc1cc(F)nc(F)n1,le15,0,0,0,0,randonly selected as training point or test point
"Acetic acid, 2,2'-oxybis-",474.85,1,O=C(O)COCC(=O)O,le15,0,0,0,1,randonly selected as training point or test point
"Formic acid, oxydi-, dimethyl ester (7CI,8CI)",353.15,1,COC(=O)OC(=O)OC,le15,0,0,0,1,randonly selected as training point or test point
2-hydroxybutanedioic acid,426.55,1,O=C(O)CC(O)C(=O)O,le15,0,0,0,1,randonly selected as training point or test point
"2,2-dinitropropane",348.35,1,CC(C)([N+](=O)[O-])[N+](=O)[O-],le15,0,0,0,0,randonly selected as training point or test point
3H-1-benzofuran-2-one,370.05,1,O=C1Cc2ccccc2O1,le15,0,0,0,0,randonly selected as training point or test point
"1,3-Benzenedicarboxaldehyde (9CI)",367.25,1,O=Cc1cccc(C=O)c1,le15,0,0,0,0,randonly selected as training point or test point
"1,2-Benzenedicarboxaldehyde",371.65,1,O=Cc1ccccc1C=O,le15,0,0,0,0,randonly selected as training point or test point
"Benzeneacetaldehyde, alpha-oxo- (9CI)",342.95,1,O=CC(=O)c1ccccc1,le15,0,0,0,0,randonly selected as training point or test point
3H-2-benzofuran-1-one,425.15,1,O=C1OCc2ccccc21,le15,0,0,0,0,randonly selected as training point or test point
"Benzoxazole, 2-amino-",395.05,1,Nc1nc2ccccc2o1,le15,0,0,0,0,randonly selected as training point or test point
"Ethanol, 2,2'-(nitrosoimino)bis-",454.25,1,O=NN(CCO)CCO,le15,0,0,0,0,randonly selected as training point or test point
1-phenylpropan-2-one,360.65,1,CC(=O)Cc1ccccc1,le15,0,0,0,0,randonly selected as training point or test point
2-(4-methylphenyl)acetaldehyde,375.25,1,Cc1ccc(CC=O)cc1,le15,0,0,0,0,randonly selected as training point or test point
3-Phenylpropionaldehyde,368.15,1,O=CCCc1ccccc1,le15,0,0,0,0,randonly selected as training point or test point
"2-Propen-1-ol, 3-phenyl-",397.912,1,OCC=Cc1ccccc1,le15,0,0,0,0,randonly selected as training point or test point
"Phenol, p-allyl- (8CI)",375.75,1,C=CCc1ccc(O)cc1,le15,0,0,0,0,randonly selected as training point or test point
1-ethenyl-2-methoxybenzene,343.75,1,C=Cc1ccccc1OC,le15,0,0,0,0,randonly selected as training point or test point
"Benzene, 1-ethenyl-4-methoxy- (9CI)",350.865,1,C=Cc1ccc(OC)cc1,le15,0,0,0,0,randonly selected as training point or test point
"1H-Inden-5-ol, 2,3-dihydro-",383.15,1,Oc1ccc2c(c1)CCC2,le15,0,0,0,0,randonly selected as training point or test point
"3a,7a-Epoxy-1H-indene, 2,3-dihydro-",361.75,1,C1=CC23CCCC2(C=C1)O3,le15,0,0,0,0,randonly selected as training point or test point
"Phenol, 2-(2-propenyl)-",361.15,1,C=CCc1ccccc1O,le15,0,0,0,0,randonly selected as training point or test point
"2-methyl-2,3-dihydro-1-benzofuran",338.35,1,CC1Cc2ccccc2O1,le15,0,0,0,0,randonly selected as training point or test point
prop-2-enoxybenzene,335.95,1,C=CCOc1ccccc1,le15,0,0,0,0,randonly selected as training point or test point
[(E)-2-methoxyethenyl]benzene,350.45,1,CO/C=C/c1ccccc1,le15,0,0,0,0,randonly selected as training point or test point
"Benzaldehyde, 4-ethyl-",365.35,1,CCc1ccc(C=O)cc1,le15,0,0,0,0,randonly selected as training point or test point
"2,3-dihydro-1H-inden-1-ol",418.15,1,OC1CCc2ccccc21,le15,0,0,0,0,randonly selected as training point or test point
2-(2-methylphenyl)acetaldehyde,377.75,1,Cc1ccccc1CC=O,le15,0,0,0,0,randonly selected as training point or test point
"Benzeneacetaldehyde, alpha-methyl-",349.261,1,CC(C=O)c1ccccc1,le15,0,0,0,0,randonly selected as training point or test point
"1-Propanone, 1-phenyl-",360.54,1,CCC(=O)c1ccccc1,le15,0,0,0,0,randonly selected as training point or test point
"Oxirane, (phenylmethyl)- (9CI)",354.85,1,c1ccc(CC2CO2)cc1,le15,0,0,0,0,randonly selected as training point or test point
"2,5-dimethylbenzaldehyde",360.15,1,Cc1ccc(C)c(C=O)c1,le15,0,0,0,0,randonly selected as training point or test point
"1,3-Propanediol, 2-ethyl-2-(hydroxymethyl)-",420.85,1,CCC(CO)(CO)CO,le15,0,0,0,0,randonly selected as training point or test point
"1,2,6-Hexanetriol",438.65,1,OCCCCC(O)CO,le15,0,0,0,0,randonly selected as training point or test point
"2-Propanol, 1,1'-oxybis-",410.95,1,CC(O)COCC(C)O,le15,0,0,0,0,randonly selected as training point or test point
"Ethanol, 2-(2-ethoxyethoxy)-",369.25,1,CCOCCOCCO,le15,0,0,0,0,randonly selected as training point or test point
"Ethane, 1,1'-oxybis(2-methoxy-",343.15,1,COCCOCCOC,le15,0,0,0,0,randonly selected as training point or test point
"1,2,3,4-tetrahydroquinoxaline",449.25,1,c1ccc2c(c1)NCCN2,le15,0,0,0,0,randonly selected as training point or test point
"1,2,3-trimethoxypropane",315.85,1,COCC(COC)OC,le15,0,0,0,0,randonly selected as training point or test point
1-benzothiophene,335.15,1,c1ccc2sccc2c1,le15,0,0,0,0,randonly selected as training point or test point
Benzo(b)thiophene,335.15,1,c1ccc2sccc2c1,le15,0,0,0,0,randonly selected as training point or test point
"Thiophene, tetrahydro-3-methyl-, 1,1-dioxide",427.55,1,CC1CCS(=O)(=O)C1,le15,0,0,0,0,randonly selected as training point or test point
"Benzene, 1,2,4,5-tetramethyl-",347.05,1,Cc1cc(C)c(C)cc1C,le15,0,0,0,0,randonly selected as training point or test point
"Benzene, (1,1-dimethylethyl)-",307.55,1,CC(C)(C)c1ccccc1,le15,0,0,0,0,randonly selected as training point or test point
"Benzene, 1,4-diethyl-",329.85,1,CCc1ccc(CC)cc1,le15,0,0,0,0,randonly selected as training point or test point
"Benzene, (1-methylpropyl)-",325.15,1,CCC(C)c1ccccc1,le15,0,0,0,0,randonly selected as training point or test point
"Benzene, 1-methyl-2-(1-methylethyl)-",323.15,1,Cc1ccccc1C(C)C,le15,0,0,0,0,randonly selected as training point or test point
2-methylpropylbenzene,323.05,1,CC(C)Cc1ccccc1,le15,0,0,0,0,randonly selected as training point or test point
1-methyl-4-propylbenzene,329.45,1,CCCc1ccc(C)cc1,le15,0,0,0,0,randonly selected as training point or test point
"Benzene, 1-methyl-4-(1-methylethyl)-",320.35,1,Cc1ccc(C(C)C)cc1,le15,0,0,0,0,randonly selected as training point or test point
Butylbenzene,322.0,1,CCCCc1ccccc1,le15,0,0,0,0,randonly selected as training point or test point
Propyl sulfoxide (8CI),374.45,1,CCCS(=O)CCC,le15,0,0,0,0,randonly selected as training point or test point
triethyl(fluoro)silane,292.15,1,CC[Si](F)(CC)CC,le15,1,1,0,0,randonly selected as training point or test point
"2,4-Pentanedione, 3-chloro-",285.35,1,CC(=O)C(Cl)C(C)=O,le15,0,0,0,0,randonly selected as training point or test point
Hexanoyl chloride,352.15,1,CCCCCC(=O)Cl,le15,0,0,0,0,randonly selected as training point or test point
"Oxetane, 3-(chloromethyl)-3-ethyl-",322.55,1,CCC1(CCl)COC1,le15,0,0,0,0,randonly selected as training point or test point
2-ethylbutanoyl chloride,314.25,1,CCC(CC)C(=O)Cl,le15,0,0,0,0,randonly selected as training point or test point
"3,3-dimethylbutanoyl chloride",303.35,1,CC(C)(C)CC(=O)Cl,le15,0,0,0,0,randonly selected as training point or test point
"2-Butanone, 1-chloro-3,3-dimethyl-",340.15,1,CC(C)(C)C(=O)CCl,le15,0,0,0,0,randonly selected as training point or test point
"2,2-dimethylbutanoyl chloride",303.35,1,CCC(C)(C)C(=O)Cl,le15,0,0,0,0,randonly selected as training point or test point
3-chloroheptane,312.35,1,CCCCC(Cl)CC,le15,0,0,0,0,randonly selected as training point or test point
1-chloroheptane,314.15,1,CCCCCCCCl,le15,0,0,0,0,randonly selected as training point or test point
1chloroheptane,314.0,1,CCCCCCCCl,le15,0,0,0,0,randonly selected as training point or test point
chloro-dimethyl-prop-2-enylsilane,278.75,1,C=CC[Si](C)(C)Cl,le15,1,1,0,0,randonly selected as training point or test point
(Z)-2-bromobut-2-ene,284.25,1,C/C=C(/C)Br,le15,0,0,0,0,randonly selected as training point or test point
4-bromobut-1-ene,282.55,1,C=CCCBr,le15,0,0,0,0,randonly selected as training point or test point
(E)-2-bromobut-2-ene,274.25,1,C/C=C(\C)Br,le15,0,0,0,0,randonly selected as training point or test point
2-bromobut-1-ene,284.75,1,C=C(Br)CC,le15,0,0,0,0,randonly selected as training point or test point
(E)-1-bromobut-1-ene,287.65,1,CC/C=C/Br,le15,0,0,0,0,randonly selected as training point or test point
4bromo1butene,282.0,1,C=CCCBr,le15,0,0,0,0,randonly selected as training point or test point
"2,4,6-trifluoro-1,3,5-triazine",418.15,1,Fc1nc(F)nc(F)n1,le15,0,0,0,0,randonly selected as training point or test point
2(3H)-Benzoxazolone,433.15,1,O=c1[nH]c2ccccc2o1,le15,0,0,0,0,randonly selected as training point or test point
"1H-Benzotriazole, 1-hydroxy-, hydrate",435.35,1,O.On1nnc2ccccc21,le15,0,0,0,0,randonly selected as training point or test point
1H-Purin-2-amine,636.05,1,Nc1nc2ncnc-2c[nH]1,le15,0,0,0,0,randonly selected as training point or test point
1H-Purin-6-amine,595.86,1,Nc1[nH]cnc2ncnc1-2,le15,0,0,0,0,randonly selected as training point or test point
2-(2-fluorophenyl)acetonitrile,316.15,1,N#CCc1ccccc1F,le15,0,0,0,0,randonly selected as training point or test point
"1H-Pyrazolo(3,4-d)pyrimidine, 4-amino-",517.55,1,Nc1ncnc2[nH]ncc12,le15,0,0,0,0,randonly selected as training point or test point
N-(2-methylphenyl)formamide,436.95,1,Cc1ccccc1NC=O,le15,0,0,0,0,randonly selected as training point or test point
"Ethanone, 1-(3-aminophenyl)-",354.55,1,CC(=O)c1cccc(N)c1,le15,0,0,0,0,randonly selected as training point or test point
"Acetophenone, 4'-amino- (8CI)",367.45,1,CC(=O)c1ccc(N)cc1,le15,0,0,0,0,randonly selected as training point or test point
2-amino-1-phenylethanone,376.55,1,NCC(=O)c1ccccc1,le15,0,0,0,0,randonly selected as training point or test point
(NE)-N-(1-phenylethylidene)hydroxylamine,411.25,1,C/C(=N\O)c1ccccc1,le15,0,0,0,0,randonly selected as training point or test point
N-methyl-N-phenylformamide,399.15,1,CN(C=O)c1ccccc1,le15,0,0,0,0,randonly selected as training point or test point
"Benzamide, 2-methyl-",380.75,1,Cc1ccccc1C(N)=O,le15,0,0,0,0,randonly selected as training point or test point
"Benzamide, N-methyl-",449.05,1,CNC(=O)c1ccccc1,le15,0,0,0,0,randonly selected as training point or test point
N-(3-methylphenyl)formamide,440.95,1,Cc1cccc(NC=O)c1,le15,0,0,0,0,randonly selected as training point or test point
Benzothiazole,369.75,1,c1ccc2scnc2c1,le15,0,0,0,0,randonly selected as training point or test point
"1,2-Benzisothiazole",314.75,1,c1ccc2sncc2c1,le15,0,0,0,0,randonly selected as training point or test point
phenyl thiocyanate,367.55,1,N#CSc1ccccc1,le15,0,0,0,0,randonly selected as training point or test point
"L-Cysteine, S-methyl- (9CI)",408.55,1,CSC[C@H](N)C(=O)O,le15,0,0,0,0,randonly selected as training point or test point
"Benzeneethanamine, alpha-methyl-, (alphaS)-",360.55,1,C[C@H](N)Cc1ccccc1,le15,0,0,0,0,randonly selected as training point or test point
N-ethyl-2-methylaniline,362.05,1,CCNc1ccccc1C,le15,0,0,0,0,randonly selected as training point or test point
"Benzenamine, N,N,4-trimethyl-",357.35,1,Cc1ccc(N(C)C)cc1,le15,0,0,0,0,randonly selected as training point or test point
"Benzenamine, N-ethyl-3-methyl-",362.15,1,CCNc1cccc(C)c1,le15,0,0,0,0,randonly selected as training point or test point
"Benzenemethanamine, N,N-dimethyl-",327.55,1,CN(C)Cc1ccccc1,le15,0,0,0,0,randonly selected as training point or test point
"N,N,3-trimethylaniline",354.15,1,Cc1cccc(N(C)C)c1,le15,0,0,0,0,randonly selected as training point or test point
"Benzenamine, 2,4,5-trimethyl- (9CI)",268.15,1,Cc1cc(C)c(N)cc1C,le15,0,0,0,0,randonly selected as training point or test point
(2R)-1-phenylpropan-2-amine,360.55,1,C[C@@H](N)Cc1ccccc1,le15,0,0,0,0,randonly selected as training point or test point
"Benzeneethanamine, beta-methyl- (9CI)",357.75,1,CC(CN)c1ccccc1,le15,0,0,0,0,randonly selected as training point or test point
2-phenylpropan-2-amine,357.2,1,CC(C)(N)c1ccccc1,le15,0,0,0,0,randonly selected as training point or test point
"Benzeneethanamine, N-methyl- (9CI)",347.05,1,CNCCc1ccccc1,le15,0,0,0,0,randonly selected as training point or test point
"Aniline, N-ethyl-N-methyl- (8CI)",347.55,1,CCN(C)c1ccccc1,le15,0,0,0,0,randonly selected as training point or test point
"p-Toluidine, N-ethyl- (8CI)",357.25,1,CCNc1ccc(C)cc1,le15,0,0,0,0,randonly selected as training point or test point
"Benzenamine, N-propyl-",359.95,1,CCCNc1ccccc1,le15,0,0,0,0,randonly selected as training point or test point
"2-ethyl-3,5-dimethylpyridine",337.65,1,CCc1ncc(C)cc1C,le15,0,0,0,0,randonly selected as training point or test point
3-phenylpropan-1-amine,468.15,1,NCCCc1ccccc1,le15,0,0,0,0,randonly selected as training point or test point
p-Methylphenethylamine,363.15,1,Cc1ccc(CCN)cc1,le15,0,0,0,0,randonly selected as training point or test point
4-tert-butylpyridine,336.45,1,CC(C)(C)c1ccncc1,le15,0,0,0,0,randonly selected as training point or test point
4-butylpyridine,354.821,1,CCCCc1ccncc1,le15,0,0,0,0,randonly selected as training point or test point
"Benzenemethanamine, N-ethyl-",339.15,1,CCNCc1ccccc1,le15,0,0,0,0,randonly selected as training point or test point
"2,3,4,6-tetramethylpyridine",347.15,1,Cc1cc(C)c(C)c(C)n1,le15,0,0,0,0,randonly selected as training point or test point
"Benzenamine, 2-ethyl-6-methyl-",362.55,1,CCc1cccc(C)c1N,le15,0,0,0,0,randonly selected as training point or test point
"4-ethyl-2,6-dimethylpyridine",330.55,1,CCc1cc(C)nc(C)c1,le15,0,0,0,0,randonly selected as training point or test point
"Benzenamine, 2,4,6-trimethyl-",369.15,1,Cc1cc(C)c(N)c(C)c1,le15,0,0,0,0,randonly selected as training point or test point
3-butylpyridine,352.15,1,CCCCc1cccnc1,le15,0,0,0,0,randonly selected as training point or test point
"Benzenamine, N-(1-methylethyl)-",360.85,1,CC(C)Nc1ccccc1,le15,0,0,0,0,randonly selected as training point or test point
"Benzenamine, 2-propyl- (9CI)",370.95,1,CCCc1ccccc1N,le15,0,0,0,0,randonly selected as training point or test point
2-butylpyridine,341.95,1,CCCCc1ccccn1,le15,0,0,0,0,randonly selected as training point or test point
"Carbamodithioic acid, dimethyl-, methyl ester (9CI)",327.05,1,CSC(=S)N(C)C,le15,0,0,0,1,randonly selected as training point or test point
"Carbamoyl chloride, diethyl-",348.15,1,CCN(CC)C(=O)Cl,le15,0,0,0,0,randonly selected as training point or test point
2-Chloroethyldiethylamine,295.95,1,CCN(CC)CCCl,le15,0,0,0,0,randonly selected as training point or test point
"Arsine oxide, trimethyl-",329.55,1,C[As](C)(C)=O,le15,0,1,0,0,randonly selected as training point or test point
"Benzene, 1,4-dinitroso-",376.65,1,O=Nc1ccc(N=O)cc1,le15,0,0,0,0,randonly selected as training point or test point
"1,5-Dihydro-4H-pyrazolo(3,4-d)pyrimidin-4-one (9CI)",402.85,1,O=c1[nH]cnc2[nH]ncc12,le15,0,0,0,0,randonly selected as training point or test point
"2H-Purin-2-one, 1,3-dihydro-",640.25,1,O=c1[nH]cc2ncnc-2[nH]1,le15,0,0,0,0,randonly selected as training point or test point
"Benzoic acid, methyl ester",353.35,1,COC(=O)c1ccccc1,le15,0,0,0,1,randonly selected as training point or test point
"Benzoic acid, 3-methyl-",423.15,1,Cc1cccc(C(=O)O)c1,le15,0,0,0,1,randonly selected as training point or test point
1-(4-hydroxyphenyl)ethanone,394.35,1,CC(=O)c1ccc(O)cc1,le15,0,0,0,0,randonly selected as training point or test point
"Benzoic acid, 4-methyl-",397.85,1,Cc1ccc(C(=O)O)cc1,le15,0,0,0,1,randonly selected as training point or test point
"Acetic acid, phenyl-",429.36300000000006,1,O=C(O)Cc1ccccc1,le15,0,0,0,1,randonly selected as training point or test point
"Formic acid, phenylmethyl ester",355.15,1,O=COCc1ccccc1,le15,0,0,0,1,randonly selected as training point or test point
"Acetophenone, 2'-hydroxy- (8CI)",360.65,1,CC(=O)c1ccccc1O,le15,0,0,0,0,randonly selected as training point or test point
"Benzaldehyde, 4-methoxy-",382.05,1,COc1ccc(C=O)cc1,le15,0,0,0,0,randonly selected as training point or test point
"Benzaldehyde, 2-methoxy-",390.15,1,COc1ccccc1C=O,le15,0,0,0,0,randonly selected as training point or test point
"2,5-Cyclohexadiene-1,4-dione, 2,6-dimethyl- (9CI)",344.25,1,CC1=CC(=O)C=C(C)C1=O,le15,0,0,0,0,randonly selected as training point or test point
"Benzaldehyde, 3-methoxy-",383.15,1,COc1cccc(C=O)c1,le15,0,0,0,0,randonly selected as training point or test point
2-hydroxy-5-methylbenzaldehyde,358.25,1,Cc1ccc(O)c(C=O)c1,le15,0,0,0,0,randonly selected as training point or test point
2-hydroxy-4-methylbenzaldehyde,361.15,1,Cc1ccc(C=O)c(O)c1,le15,0,0,0,0,randonly selected as training point or test point
"2,5-Cyclohexadiene-1,4-dione, 2,5-dimethyl-",344.25,1,CC1=CC(=O)C(C)=CC1=O,le15,0,0,0,0,randonly selected as training point or test point
"1,3-Propanediol, 2,2-bis(hydroxymethyl)-",473.25,1,OCC(CO)(CO)CO,le15,0,0,0,0,randonly selected as training point or test point
"Benzenecarboximidamide, N-hydroxy- (9CI)",412.85,1,N=C(NO)c1ccccc1,le15,0,0,0,0,randonly selected as training point or test point
"Benzoic acid, hydrazide",412.85,1,NNC(=O)c1ccccc1,le15,0,0,0,1,randonly selected as training point or test point
tetramethoxymethane,279.85,1,COC(OC)(OC)OC,le15,0,0,0,0,randonly selected as training point or test point
"Benzamide, p-amino- (8CI)",438.05,1,NC(=O)c1ccc(N)cc1,le15,0,0,0,0,randonly selected as training point or test point
"Acetamide, N-4-pyridinyl- (9CI)",435.15,1,CC(=O)Nc1ccncc1,le15,0,0,0,0,randonly selected as training point or test point
N-pyridin-3-ylacetamide,424.95,1,CC(=O)Nc1cccnc1,le15,0,0,0,0,randonly selected as training point or test point
"1,2-Oxathiane, 2,2-dioxide",408.35,1,O=S1(=O)CCCCO1,le15,0,0,0,0,randonly selected as training point or test point
"4-methyl-1,3,2-dioxathiane 2-oxide",342.45,1,CC1CCOS(=O)O1,le15,0,0,0,0,randonly selected as training point or test point
"2,1,3-benzothiadiazole",368.15,1,c1ccc2nsnc2c1,le15,0,0,0,0,randonly selected as training point or test point
"Phenol, 2-(1-methylethyl)-",380.15,1,CC(C)c1ccccc1O,le15,0,0,0,0,randonly selected as training point or test point
"Phenol, 4-(1-methylethyl)-",368.45,1,CC(C)c1ccc(O)cc1,le15,0,0,0,0,randonly selected as training point or test point
"1-Propanol, 3-phenyl-",382.15,1,OCCCc1ccccc1,le15,0,0,0,0,randonly selected as training point or test point
"2,4,5-trimethylphenol",375.45,1,Cc1cc(C)c(O)cc1C,le15,0,0,0,0,randonly selected as training point or test point
"2,3,4-trimethylphenol",378.45,1,Cc1ccc(O)c(C)c1C,le15,0,0,0,0,randonly selected as training point or test point
"Phenol, 3,4,5-trimethyl-",382.25,1,Cc1cc(O)cc(C)c1C,le15,0,0,0,0,randonly selected as training point or test point
"Phenol, 2,4,6-trimethyl-",369.85,1,Cc1cc(C)c(O)c(C)c1,le15,0,0,0,0,randonly selected as training point or test point
1-(4-methylphenyl)ethanol,375.15,1,Cc1ccc(C(C)O)cc1,le15,0,0,0,0,randonly selected as training point or test point
ethoxymethylbenzene,326.05,1,CCOCc1ccccc1,le15,0,0,0,0,randonly selected as training point or test point
"Benzene, 1-ethoxy-2-methyl-",337.35,1,CCOc1ccccc1C,le15,0,0,0,0,randonly selected as training point or test point
"Benzenemethanol, alpha,alpha-dimethyl-",360.95,1,CC(C)(O)c1ccccc1,le15,0,0,0,0,randonly selected as training point or test point
"Phenetole, p-methyl- (8CI)",343.15,1,CCOc1ccc(C)cc1,le15,0,0,0,0,randonly selected as training point or test point
"Phenol, 4-propyl-",379.25,1,CCCc1ccc(O)cc1,le15,0,0,0,0,randonly selected as training point or test point
"Phenol, 2,3,5-trimethyl-",376.75,1,Cc1cc(C)c(C)c(O)c1,le15,0,0,0,0,randonly selected as training point or test point
"Phenethyl alcohol, p-methyl- (8CI)",380.35,1,Cc1ccc(CCO)cc1,le15,0,0,0,0,randonly selected as training point or test point