compound,flashpoint,pure substance,smiles,source,is_silicon,is_metallic,is_tin,is_acid,data type
"1,2-Benzenediamine, 3-nitro- (9CI)",450.55,1,Nc1cccc([N+](=O)[O-])c1N,le15,0,0,0,0,randonly selected as training point or test point
"1,3-Benzenediamine, 4-nitro-",487.15,1,Nc1ccc([N+](=O)[O-])c(N)c1,le15,0,0,0,0,randonly selected as training point or test point
"Acetamide, 2-fluoro-N-phenyl- (9CI)",418.25,1,O=C(CF)Nc1ccccc1,le15,0,0,0,0,randonly selected as training point or test point
naphthalene-1-carbonitrile,413.85,1,N#Cc1cccc2ccccc12,le15,0,0,0,0,randonly selected as training point or test point
1-fluoro-3-isothiocyanatobenzene,358.15,1,Fc1cccc(N=C=S)c1,le15,0,0,0,0,randonly selected as training point or test point
1-fluoro-4-isothiocyanatobenzene,362.55,1,Fc1ccc(N=C=S)cc1,le15,0,0,0,0,randonly selected as training point or test point
"2,5-dimethoxyaniline",403.252,1,COc1ccc(OC)c(N)c1,le15,0,0,0,0,randonly selected as training point or test point
"Benzyl alcohol, alpha-(aminomethyl)-m-hydroxy-",445.15,1,NCC(O)c1cccc(O)c1,le15,0,0,0,0,randonly selected as training point or test point
"2,4-Dimethoxyaniline hydrochloride",397.95,1,COc1ccc(N)c(OC)c1.Cl,le15,0,0,0,0,randonly selected as training point or test point
"Benzenemethanol, alpha-(aminomethyl)-4-hydroxy-",445.15,1,NCC(O)c1ccc(O)cc1,le15,0,0,0,0,randonly selected as training point or test point
9-methyl-9-azabicyclo[3.3.1]nonan-3-one,369.05,1,CN1C2CCCC1CC(=O)C2,le15,0,0,0,0,randonly selected as training point or test point
decanenitrile,365.15,1,CCCCCCCCCC#N,le15,0,0,0,0,randonly selected as training point or test point
"Isocyanic acid, m-chlorophenyl ester",355.15,1,O=C=Nc1cccc(Cl)c1,le15,0,0,0,1,randonly selected as training point or test point
1-chloro-2-isocyanatobenzene,361.15,1,O=C=Nc1ccccc1Cl,le15,0,0,0,0,randonly selected as training point or test point
"2-chloro-1,3-benzoxazole",358.15,1,Clc1nc2ccccc2o1,le15,0,0,0,0,randonly selected as training point or test point
iodoethene,279.35,1,C=CI,le15,0,0,0,0,randonly selected as training point or test point
"1,1,1-trifluoropentane-2,4-dione",299.25,1,CC(=O)CC(=O)C(F)(F)F,le15,0,0,0,0,randonly selected as training point or test point
"Benzoic acid, 2,4-dihydroxy-",491.95,1,O=C(O)c1ccc(O)cc1O,le15,0,0,0,1,randonly selected as training point or test point
"Benzoic acid, 3,4-dihydroxy- (9CI)",489.45,1,O=C(O)c1ccc(O)c(O)c1,le15,0,0,0,1,randonly selected as training point or test point
"4,6-Dihydro-4-hydroxy-2H-furo(3,2-c)pyran-2-one",499.95,1,O=C1C=C2C(=CCOC2O)O1,le15,0,0,0,0,randonly selected as training point or test point
"Benzoic acid, 2,5-dihydroxy-",487.15,1,O=C(O)c1cc(O)ccc1O,le15,0,0,0,1,randonly selected as training point or test point
"Benzaldehyde, 2,3,4-trihydroxy-",423.75,1,O=Cc1ccc(O)c(O)c1O,le15,0,0,0,0,randonly selected as training point or test point
"Benzaldehyde, 2,4,6-trihydroxy-",434.15,1,O=Cc1c(O)cc(O)cc1O,le15,0,0,0,0,randonly selected as training point or test point
"Phenol, 2-amino-4-nitro-",449.55,1,Nc1cc([N+](=O)[O-])ccc1O,le15,0,0,0,0,randonly selected as training point or test point
"Phenol, 4-amino-2-nitro-",429.25,1,Nc1ccc(O)c([N+](=O)[O-])c1,le15,0,0,0,0,randonly selected as training point or test point
2-Amino-3-nitrophenol,417.95,1,Nc1c(O)cccc1[N+](=O)[O-],le15,0,0,0,0,randonly selected as training point or test point
2-Nitro-6-aminophenol,396.45,1,Nc1cccc([N+](=O)[O-])c1O,le15,0,0,0,0,randonly selected as training point or test point
"Phosphorodiamidic fluoride, tetramethyl-",321.85,1,CN(C)P(=O)(F)N(C)C,le15,0,0,0,0,randonly selected as training point or test point
"Aniline, p-fluoro-N-methyl-N-nitroso-",391.25,1,CN(N=O)c1ccc(F)cc1,le15,0,0,0,0,randonly selected as training point or test point
"Phenol, 2,6-dimethoxy-",373.05,1,COc1cccc(OC)c1O,le15,0,0,0,0,randonly selected as training point or test point
"Benzenemethanol, 4-hydroxy-3-methoxy-",416.35,1,COc1cc(CO)ccc1O,le15,0,0,0,0,randonly selected as training point or test point
"Phenol, 3,5-dimethoxy- (8CI)(9CI)",351.15,1,COc1cc(O)cc(OC)c1,le15,0,0,0,0,randonly selected as training point or test point
furan-2-ylmethyl propanoate,354.85,1,CCC(=O)OCc1ccco1,le15,0,0,0,0,randonly selected as training point or test point
"2-Butenoic acid, anhydride",383.75,1,CC=CC(=O)OC(=O)C=CC,le15,0,0,0,1,randonly selected as training point or test point
"Propanedinitrile, (phenylmethylene)- (9CI)",411.15,1,N#CC(C#N)=Cc1ccccc1,le15,0,0,0,0,randonly selected as training point or test point
"Cinchoninonitrile(6CI,7CI,8CI)",368.35,1,N#Cc1ccnc2ccccc12,le15,0,0,0,0,randonly selected as training point or test point
"2-Propenamide, N,N'-methylenebis-",488.15,1,C=CC(=O)NCNC(=O)C=C,le15,0,0,0,0,randonly selected as training point or test point
"Phosphonothioic acid, ethyl-, O-ethyl ester",354.05,1,CCOP([O-])(=S)CC,le15,0,0,0,1,randonly selected as training point or test point
"1,3,5-Triazin-2-amine, 4-methoxy-N,6-dimethyl-",411.35,1,CNc1nc(C)nc(OC)n1,le15,0,0,0,0,randonly selected as training point or test point
DiethylSulfate,377.0,1,CCOS(=O)(=O)OCC,le15,0,0,0,0,randonly selected as training point or test point
"Acenaphthylene, 1,2-dihydro-",408.15,1,c1cc2c3c(cccc3c1)CC2,le15,0,0,0,0,randonly selected as training point or test point
Biphenyl,386.0,1,c1ccc(-c2ccccc2)cc1,le15,0,0,0,0,randonly selected as training point or test point
"2-Octynoic acid, methyl ester",362.05,1,CCCCCC#CC(=O)OC,le15,0,0,0,1,randonly selected as training point or test point
"2-Propenoic acid, cyclohexyl ester",344.45,1,C=CC(=O)OC1CCCCC1,le15,0,0,0,1,randonly selected as training point or test point
"2H-1-Benzopyran-2-one, octahydro-",382.15,1,O=C1CCC2CCCCC2O1,le15,0,0,0,0,randonly selected as training point or test point
"1,2,3,3a,4,5,6,6a-octahydropentalene-1-carboxylic acid",396.85,1,O=C(O)C1CCC2CCCC21,le15,0,0,0,1,randonly selected as training point or test point
2-(butoxymethyl)furan,347.75,1,CCCCOCc1ccco1,le15,0,0,0,0,randonly selected as training point or test point
2-Nonynoic acid,405.95,1,CCCCCCC#CC(=O)O,le15,0,0,0,1,randonly selected as training point or test point
Methyl2octynoate,361.0,1,CCCCCC#CC(=O)OC,le15,0,0,0,0,randonly selected as training point or test point
"Phenol, 3-methyl-4-(methylthio)-",401.85,1,CSc1ccc(O)cc1C,le15,0,0,0,0,randonly selected as training point or test point
"Cyclohexanone, 4-(1,1-dimethylethyl)-",369.25,1,CC(C)(C)C1CCC(=O)CC1,le15,0,0,0,0,randonly selected as training point or test point
"6-Octenal, 3,7-dimethyl-",348.75,1,CC(C)=CCCC(C)CC=O,le15,0,0,0,0,randonly selected as training point or test point
"2,6-Octadien-1-ol, 3,7-dimethyl-, (2Z)-",372.65,1,CC(C)=CCC/C(C)=C\CO,le15,0,0,0,0,randonly selected as training point or test point
"Bicyclo(2.2.1)heptan-2-ol, 1,7,7-trimethyl-, (1R,2R,4R)-rel-",347.15,1,CC1(C)[C@@H]2CC[C@@]1(C)[C@H](O)C2,le15,0,0,0,0,randonly selected as training point or test point
"Bicyclo(2.2.1)heptan-2-ol, 1,7,7-trimethyl-, (1S,2R,4S)-",338.15,1,CC1(C)[C@H]2CC[C@]1(C)[C@H](O)C2,le15,0,0,0,0,randonly selected as training point or test point
"Bicyclo(2.2.1)heptan-2-ol, 1,7,7-trimethyl-, (1R,2S,4R)-rel-",338.75,1,CC1(C)[C@@H]2CC[C@@]1(C)[C@@H](O)C2,le15,0,0,0,0,randonly selected as training point or test point
2-methyl-5-propan-2-ylbicyclo[3.1.0]hexan-3-ol,356.85,1,CC1C(O)CC2(C(C)C)CC12,le15,0,0,0,0,randonly selected as training point or test point
"3-Cyclohexen-1-ol, 4-methyl-1-(1-methylethyl)-",355.15,1,CC1=CCC(O)(C(C)C)CC1,le15,0,0,0,0,randonly selected as training point or test point
6-methyl-3-propan-2-ylcyclohex-2-en-1-ol,362.95,1,CC(C)C1=CC(O)C(C)CC1,le15,0,0,0,0,randonly selected as training point or test point
"Cyclohexanol, 2-methyl-5-(1-methylethenyl)-",364.85,1,C=C(C)C1CCC(C)C(O)C1,le15,0,0,0,0,randonly selected as training point or test point
"Cyclohexanecarboxaldehyde, 3,3,5-trimethyl-",336.95,1,CC1CC(C=O)CC(C)(C)C1,le15,0,0,0,0,randonly selected as training point or test point
"Ethanol, 2,2'-dithiobis-",422.45,1,OCCSSCCO,le15,0,0,0,0,randonly selected as training point or test point
2-Decyn-1-ol,331.55,1,CCCCCCCC#CCO,le15,0,0,0,0,randonly selected as training point or test point
2-cyclopentylcyclopentan-1-ol,375.05,1,OC1CCCC1C1CCCC1,le15,0,0,0,0,randonly selected as training point or test point
"(2S,5R)-5-methyl-2-propan-2-ylcyclohexan-1-one",345.95,1,CC(C)[C@@H]1CC[C@@H](C)CC1=O,le15,0,0,0,0,randonly selected as training point or test point
"Cyclohexanone, 5-methyl-2-(1-methylethyl)-, (2R,5S)-rel-",342.15,1,CC(C)[C@H]1CC[C@H](C)CC1=O,le15,0,0,0,0,randonly selected as training point or test point
"2,6-Octadien-1-ol, 3,7-dimethyl-, (2E)-",349.81699999999995,1,CC(C)=CCC/C(C)=C/CO,le15,0,0,0,0,randonly selected as training point or test point
p-Menth-8-en-1-ol(8CI),360.65,1,C=C(C)C1CCC(C)(O)CC1,le15,0,0,0,0,randonly selected as training point or test point
"7-Oxabicyclo(2.2.1)heptane, 1-methyl-4-(1-methylethyl)-",320.95,1,CC(C)C12CCC(C)(CC1)O2,le15,0,0,0,0,randonly selected as training point or test point
"2-Oxabicyclo(2.2.2)octane, 1,3,3-trimethyl-",322.15,1,CC12CCC(CC1)C(C)(C)O2,le15,0,0,0,0,randonly selected as training point or test point
"7-Octen-2-ol, 2-methyl-6-methylene-",357.95,1,C=CC(=C)CCCC(C)(C)O,le15,0,0,0,0,randonly selected as training point or test point
"(3R)-3,7-dimethyloct-6-enal",348.75,1,CC(C)=CCC[C@@H](C)CC=O,le15,0,0,0,0,randonly selected as training point or test point
"(2,6,6-trimethylcyclohex-2-en-1-yl)methanol",354.85,1,CC1=CCCC(C)(C)C1CO,le15,0,0,0,0,randonly selected as training point or test point
2-(4-methylcyclohex-3-en-1-yl)propan-2-ol,362.55,1,CC1=CCC(C(C)(C)O)CC1,le15,0,0,0,0,randonly selected as training point or test point
Citronellal,348.0,1,CC(C)=CCCC(C)CC=O,le15,0,0,0,0,randonly selected as training point or test point
(Z)-undec-2-ene,334.35,1,C/C=C\CCCCCCCC,le15,0,0,0,0,randonly selected as training point or test point
pentylcyclohexane,339.25,1,CCCCCC1CCCCC1,le15,0,0,0,0,randonly selected as training point or test point
"Ethane, 1-chloro-1,1,2,2,2-pentafluoro-",343.15,1,FC(F)(F)C(F)(F)Cl,le15,0,0,0,0,randonly selected as training point or test point
Benzeneacetyl chloride,363.15,1,O=C(Cl)Cc1ccccc1,le15,0,0,0,0,randonly selected as training point or test point
"Ethanone, 2-chloro-1-phenyl-",377.95,1,O=C(CCl)c1ccccc1,le15,0,0,0,0,randonly selected as training point or test point
"Benzoyl chloride, 4-methyl-",355.15,1,Cc1ccc(C(=O)Cl)cc1,le15,0,0,0,0,randonly selected as training point or test point
"Benzoyl chloride, 2-methyl-",349.15,1,Cc1ccccc1C(=O)Cl,le15,0,0,0,0,randonly selected as training point or test point
"Benzoyl chloride, 3-methyl-",349.15,1,Cc1cccc(C(=O)Cl)c1,le15,0,0,0,0,randonly selected as training point or test point
"Ethanone, 1-(2-chlorophenyl)-",361.15,1,CC(=O)c1ccccc1Cl,le15,0,0,0,0,randonly selected as training point or test point
3-chloropropylbenzene,360.35,1,ClCCCc1ccccc1,le15,0,0,0,0,randonly selected as training point or test point
"1-(chloromethyl)-2,4-dimethylbenzene",369.15,1,Cc1ccc(CCl)c(C)c1,le15,0,0,0,0,randonly selected as training point or test point
1-chloro-4-propan-2-ylbenzene,587.15,1,CC(C)c1ccc(Cl)cc1,le15,0,0,0,0,randonly selected as training point or test point
"2-chloro-1,3,5-trimethylbenzene",349.95,1,Cc1cc(C)c(Cl)c(C)c1,le15,0,0,0,0,randonly selected as training point or test point
1-chloro-2-propan-2-ylbenzene,344.15,1,CC(C)c1ccccc1Cl,le15,0,0,0,0,randonly selected as training point or test point
butanedioyl dichloride,349.85,1,O=C(Cl)CCC(=O)Cl,le15,0,0,0,0,randonly selected as training point or test point
1-bromo-4-fluorobutane,306.45,1,FCCCCBr,le15,0,0,0,0,randonly selected as training point or test point
"Oxetane, 3,3-bis(chloromethyl)-",388.95,1,ClCC1(CCl)COC1,le15,0,0,0,0,randonly selected as training point or test point
"1,2-dichlorohexane",329.75,1,CCCCC(Cl)CCl,le15,0,0,0,0,randonly selected as training point or test point
"1,6-dichlorohexane",347.05,1,ClCCCCCCCl,le15,0,0,0,0,randonly selected as training point or test point
"4-Pyridinecarboxylic acid, 1,2-dihydro-6-hydroxy-2-oxo-",454.05,1,O=C(O)c1cc(O)[nH]c(=O)c1,le15,0,0,0,1,randonly selected as training point or test point
"1,3-Benzenediol, 2-nitro-",384.55,1,O=[N+]([O-])c1c(O)cccc1O,le15,0,0,0,0,randonly selected as training point or test point
4-Nitropyrocatechol,441.95,1,O=[N+]([O-])c1ccc(O)c(O)c1,le15,0,0,0,0,randonly selected as training point or test point
4-fluoro-1-methyl-2-nitrobenzene,372.05,1,Cc1ccc(F)cc1[N+](=O)[O-],le15,0,0,0,0,randonly selected as training point or test point
L-Histidine,555.15,1,N[C@@H](Cc1c[nH]cn1)C(=O)O,le15,0,0,0,0,randonly selected as training point or test point
"Pyridine, 4-phenyl-",384.25,1,c1ccc(-c2ccncc2)cc1,le15,0,0,0,0,randonly selected as training point or test point
"Pyridine, 2-phenyl-",386.45,1,c1ccc(-c2ccccn2)cc1,le15,0,0,0,0,randonly selected as training point or test point
"Pyridine, 3-phenyl-",392.447,1,c1ccc(-c2cccnc2)cc1,le15,0,0,0,0,randonly selected as training point or test point
"3-Pyridinecarboxylic acid, 1,2,5,6-tetrahydro-1-methyl-, methyl ester",354.25,1,COC(=O)C1=CCCN(C)C1,le15,0,0,0,1,randonly selected as training point or test point
"1H-Pyrrolizine-7-methanol, 2,3,5,7a-tetrahydro-1-hydroxy-, (1R-trans)-",434.55,1,OCC1=CCN2CC[C@@H](O)[C@@H]12,le15,0,0,0,0,randonly selected as training point or test point
"4-Pentenamide, 2,2-diethyl-",389.35,1,C=CCC(CC)(CC)C(N)=O,le15,0,0,0,0,randonly selected as training point or test point
"4-Piperidinone, 2,2,6,6-tetramethyl-",346.35,1,CC1(C)CC(=O)CC(C)(C)N1,le15,0,0,0,0,randonly selected as training point or test point
"Cyclohexanamine, N-butyl-",345.25,1,CCCCNC1CCCCC1,le15,0,0,0,0,randonly selected as training point or test point
1-pentylpiperidine,351.45,1,CCCCCN1CCCCC1,le15,0,0,0,0,randonly selected as training point or test point
"1,2,2,6,6-pentamethylpiperidine",323.15,1,CN1C(C)(C)CCCC1(C)C,le15,0,0,0,0,randonly selected as training point or test point
"Benzamide, o-chloro- (8CI)",393.25,1,NC(=O)c1ccccc1Cl,le15,0,0,0,0,randonly selected as training point or test point
"Benzamide, p-chloro- (6CI,7CI,8CI)",402.45,1,NC(=O)c1ccc(Cl)cc1,le15,0,0,0,0,randonly selected as training point or test point
"Formamide, N-(4-chlorophenyl)- (9CI)",417.35,1,O=CNc1ccc(Cl)cc1,le15,0,0,0,0,randonly selected as training point or test point
4-Chlorobenzeneethanamine,379.15,1,NCCc1ccc(Cl)cc1,le15,0,0,0,0,randonly selected as training point or test point
"2-chloro-N,N-dimethylaniline",347.55,1,CN(C)c1ccccc1Cl,le15,0,0,0,0,randonly selected as training point or test point
"Ethanamine, 2-chloro-N-(2-chloroethyl)-N-methyl-",293.65,1,CN(CCCl)CCCl,le15,0,0,0,0,randonly selected as training point or test point
"S-TRIAZINE-2,4,6-TRICARBONITRILE",414.55,1,N#Cc1nc(C#N)nc(C#N)n1,le15,0,0,0,0,randonly selected as training point or test point
"Benzenamine, 4-fluoro-3-nitro-",364.15,1,Nc1ccc(F)c([N+](=O)[O-])c1,le15,0,0,0,0,randonly selected as training point or test point
"Phosphorothioic acid, O,O,O-trimethyl ester",306.35,1,COP(=S)(OC)OC,le15,0,0,0,1,randonly selected as training point or test point
"Phosphorothioic acid, O,O,S-trimethyl ester",329.15,1,COP(=O)(OC)SC,le15,0,0,0,1,randonly selected as training point or test point
ethyl 2-oxocyclopentane-1-carboxylate,350.15,1,CCOC(=O)C1CCCC1=O,le15,0,0,0,0,randonly selected as training point or test point
3-pyridin-3-ylpyridine,388.75,1,c1cncc(-c2cccnc2)c1,le15,0,0,0,0,randonly selected as training point or test point
"Benzene, (methylsulfonyl)- (9CI)",444.55,1,CS(=O)(=O)c1ccccc1,le15,0,0,0,0,randonly selected as training point or test point
ethyl thiophene-2-carboxylate,359.25,1,CCOC(=O)c1cccs1,le15,0,0,0,0,randonly selected as training point or test point
"1,8-dimethylnaphthalene",388.45,1,Cc1cccc2cccc(C)c12,le15,0,0,0,0,randonly selected as training point or test point
"1,4-dimethylnaphthalene",382.35,1,Cc1ccc(C)c2ccccc12,le15,0,0,0,0,randonly selected as training point or test point
"1,5-dimethylnaphthalene",384.55,1,Cc1cccc2c(C)cccc12,le15,0,0,0,0,randonly selected as training point or test point
"1,2-dimethylnaphthalene",387.15,1,Cc1ccc2ccccc2c1C,le15,0,0,0,0,randonly selected as training point or test point
"1,7-dimethylnaphthalene",381.85,1,Cc1ccc2cccc(C)c2c1,le15,0,0,0,0,randonly selected as training point or test point
"Naphthalene, 1,3-dimethyl-",382.55,1,Cc1cc(C)c2ccccc2c1,le15,0,0,0,0,randonly selected as training point or test point
"Naphthalene, 2,3-dimethyl- (8CI)(9CI)",387.15,1,Cc1cc2ccccc2cc1C,le15,0,0,0,0,randonly selected as training point or test point
"2,7-dimethylnaphthalene",383.65,1,Cc1ccc2ccc(C)cc2c1,le15,0,0,0,0,randonly selected as training point or test point
2-ethylnaphthalene,377.55,1,CCc1ccc2ccccc2c1,le15,0,0,0,0,randonly selected as training point or test point
1-ethylnaphthalene,384.85,1,CCc1cccc2ccccc12,le15,0,0,0,0,randonly selected as training point or test point
"Naphthalene, 1,6-dimethyl- (8CI)(9CI)",383.65,1,Cc1ccc2c(C)cccc2c1,le15,0,0,0,0,randonly selected as training point or test point
"2,6-dimethylnaphthalene",383.65,1,Cc1ccc2cc(C)ccc2c1,le15,0,0,0,0,randonly selected as training point or test point
"2(3H)-Furanone, dihydro-5-pentyl-",371.95,1,CCCCCC1CCC(=O)O1,le15,0,0,0,0,randonly selected as training point or test point
"Hexanoic acid, 2-propenyl ester",347.15,1,C=CCOC(=O)CCCCC,le15,0,0,0,1,randonly selected as training point or test point
3-cyclohexylpropanoic acid,404.65,1,O=C(O)CCC1CCCCC1,le15,0,0,0,1,randonly selected as training point or test point
"2-Propenoic acid, 2-methyl-, 2,2-dimethylpropyl ester",327.05,1,C=C(C)C(=O)OCC(C)(C)C,le15,0,0,0,1,randonly selected as training point or test point
"2-Propenoic acid, hexyl ester",331.45,1,C=CC(=O)OCCCCCC,le15,0,0,0,1,randonly selected as training point or test point
"Methacrylic acid, pentyl ester (8CI)",333.45,1,C=C(C)C(=O)OCCCCC,le15,0,0,0,1,randonly selected as training point or test point
"Cyclohexanecarboxylic acid, ethyl ester",341.65,1,CCOC(=O)C1CCCCC1,le15,0,0,0,1,randonly selected as training point or test point
2-Nonenoic acid,441.45,1,CCCCCCC=CC(=O)O,le15,0,0,0,1,randonly selected as training point or test point
"2-Propenoic acid, 2-ethylbutyl ester",328.85,1,C=CC(=O)OCC(CC)CC,le15,0,0,0,1,randonly selected as training point or test point
cyclohexyl propanoate,340.95,1,CCC(=O)OC1CCCCC1,le15,0,0,0,0,randonly selected as training point or test point
"Urea, (1-methylcyclohexyl)-",373.65,1,CC1(NC(N)=O)CCCCC1,le15,0,0,0,0,randonly selected as training point or test point
"Urea, (1-ethylcyclopentyl)-",372.35,1,CCC1(NC(N)=O)CCCC1,le15,0,0,0,0,randonly selected as training point or test point
"2-Propenamide, N-(3-(dimethylamino)propyl)-",400.95,1,C=CC(=O)NCCCN(C)C,le15,0,0,0,0,randonly selected as training point or test point
"Cyclohexanol, 4-(1,1-dimethylethyl)-",378.15,1,CC(C)(C)C1CCC(O)CC1,le15,0,0,0,0,randonly selected as training point or test point
"Heptane, 3-((ethenyloxy)methyl)- (9CI)",291.75,1,C=COCC(CC)CCCC,le15,0,0,0,0,randonly selected as training point or test point
"6-Octen-1-ol, 3,7-dimethyl-",371.45,1,CC(C)=CCCC(C)CCO,le15,0,0,0,0,randonly selected as training point or test point
"Cyclohexanemethanol, alpha,alpha,4-trimethyl-",362.85,1,CC1CCC(C(C)(C)O)CC1,le15,0,0,0,0,randonly selected as training point or test point
2-Decanone,344.15,1,CCCCCCCCC(C)=O,le15,0,0,0,0,randonly selected as training point or test point
3-Decanone,299.85,1,CCCCCCCC(=O)CC,le15,0,0,0,0,randonly selected as training point or test point
2-methyl-5-propan-2-ylcyclohexan-1-ol,359.85,1,CC(C)C1CCC(C)C(O)C1,le15,0,0,0,0,randonly selected as training point or test point
8-methylnonanal,343.85,1,CC(C)CCCCCCC=O,le15,0,0,0,0,randonly selected as training point or test point
1-methyl-4-propan-2-ylcyclohexan-1-ol,356.55,1,CC(C)C1CCC(C)(O)CC1,le15,0,0,0,0,randonly selected as training point or test point
9decen1ol,392.0,1,C=CCCCCCCCCO,le15,0,0,0,0,randonly selected as training point or test point
Decanal,358.0,1,CCCCCCCCCC=O,le15,0,0,0,0,randonly selected as training point or test point
"Piperidine, 4-amino-2,2,6,6-tetramethyl-",345.15,1,CC1(C)CC(N)CC(C)(C)N1,le15,0,0,0,0,randonly selected as training point or test point