compound,flashpoint,pure substance,smiles,source,is_silicon,is_metallic,is_tin,is_acid,data type
propanoate,325.15,1,CCC(=O)[O-],pubchem,0,0,0,0,randonly selected as training point or test point
butanoate,345.15,1,CCCC(=O)[O-],pubchem,0,0,0,0,randonly selected as training point or test point
prop-2-enyl 2-(3-methylbutoxy)acetate,341.15,1,CC(C)CCOCC(=O)OCC=C,pubchem,0,0,0,0,randonly selected as training point or test point
"2,6-dimethylmorpholine",317.15,1,CC1CNCC(O1)C,pubchem,0,0,0,0,randonly selected as training point or test point
(4-methylcyclohexyl)methanol,385.15,1,CC1CCC(CC1)CO,pubchem,0,0,0,0,randonly selected as training point or test point
3-[bis(2-carboxyethyl)phosphanyl]propanoic acid,475.15,1,C(CP(CCC(=O)O)CCC(=O)O)C(=O)O,pubchem,0,0,0,1,randonly selected as training point or test point
"but-1-ene-1,4-diol",401.15,1,C(CO)C=CO,pubchem,0,0,0,0,randonly selected as training point or test point
"[(1S,2S,6S,10S,11R,13S,14R,15R)-13-acetyloxy-1,6-dihydroxy-8-(hydroxymethyl)-4,12,12,15-tetramethyl-5-oxo-14-tetracyclo[8.5.0.02,6.011,13]pentadeca-3,8-dienyl] tetradecanoate",310.15,1,CCCCCCCCCCCCCC(=O)OC1C(C2(C(C=C(CC3(C2C=C(C3=O)C)O)CO)C4C1(C4(C)C)OC(=O)C)O)C,pubchem,0,0,0,0,randonly selected as training point or test point
"3-acetyl-6-methylpyran-2,4-dione",342.15,1,CC1=CC(=O)C(C(=O)O1)C(=O)C,pubchem,0,0,0,0,randonly selected as training point or test point
"(2,5-dioxo-3-prop-2-ynylimidazolidin-1-yl)methyl 2,2-dimethyl-3-(2-methylprop-1-enyl)cyclopropane-1-carboxylate",383.15,1,CC(=CC1C(C1(C)C)C(=O)OCN2C(=O)CN(C2=O)CC#C)C,pubchem,0,0,0,0,randonly selected as training point or test point
(2-tert-butylphenyl) diphenyl phosphate,497.15,1,CC(C)(C)C1=CC=CC=C1OP(=O)(OC2=CC=CC=C2)OC3=CC=CC=C3,pubchem,0,0,0,0,randonly selected as training point or test point
"(1R,4R)-1,7,7-trimethylbicyclo[2.2.1]heptan-2-one",320.15,1,CC1(C2CCC1(C(=O)C2)C)C,pubchem,0,0,0,0,randonly selected as training point or test point
"(1S,2R,5S)-5-methyl-2-propan-2-ylcyclohexan-1-ol",364.15,1,CC1CCC(C(C1)O)C(C)C,pubchem,0,0,0,0,randonly selected as training point or test point
6-methylheptyl prop-2-enoate,364.15,1,CC(C)CCCCCOC(=O)C=C,pubchem,0,0,0,0,randonly selected as training point or test point
"1,1,2-trimethylbenzo[e]indole",455.15,1,CC1=NC2=C(C1(C)C)C3=CC=CC=C3C=C2,pubchem,0,0,0,0,randonly selected as training point or test point
2-dodecylphenol,436.15,1,CCCCCCCCCCCCC1=CC=CC=C1O,pubchem,0,0,0,0,randonly selected as training point or test point
1-ethoxypropan-2-yl acetate,326.15,1,CCOCC(C)OC(=O)C,pubchem,0,0,0,0,randonly selected as training point or test point
"(E)-but-2-ene-1,4-diol",401.15,1,C(C=CCO)O,pubchem,0,0,0,0,randonly selected as training point or test point
"(4R,5R)-5-(4-chlorophenyl)-N-cyclohexyl-4-methyl-2-oxo-1,3-thiazolidine-3-carboxamide",373.15,1,CC1C(SC(=O)N1C(=O)NC2CCCCC2)C3=CC=C(C=C3)Cl,pubchem,0,0,0,0,randonly selected as training point or test point
butyl (2R)-2-[4-(4-cyano-2-fluorophenoxy)phenoxy]propanoate,395.15,1,CCCCOC(=O)C(C)OC1=CC=C(C=C1)OC2=C(C=C(C=C2)C#N)F,pubchem,0,0,0,0,randonly selected as training point or test point
"1,1-dichloro-2-propan-2-yloxypropane",358.15,1,CC(C)OC(C)C(Cl)Cl,pubchem,0,0,0,0,randonly selected as training point or test point
"7a-methyl-4,7-dihydro-3aH-2-benzofuran-1,3-dione",623.15,1,CC12CC=CCC1C(=O)OC2=O,pubchem,0,0,0,0,randonly selected as training point or test point
hexanedioate,658.15,1,C(CCC(=O)[O-])CC(=O)[O-],pubchem,0,0,0,0,randonly selected as training point or test point
"(1S,2R,6S,7R)-4-[[(1R,2R)-2-[[4-(1,2-benzothiazol-3-yl)piperazin-1-yl]methyl]cyclohexyl]methyl]-4-azatricyclo[5.2.1.02,6]decane-3,5-dione",282.15,1,C1CCC(C(C1)CN2CCN(CC2)C3=NSC4=CC=CC=C43)CN5C(=O)C6C7CCC(C7)C6C5=O,pubchem,0,0,0,0,randonly selected as training point or test point
"[(1S,2S,4R)-1,7,7-trimethyl-2-bicyclo[2.2.1]heptanyl] 2-thiocyanatoacetate",355.15,1,CC1(C2CCC1(C(C2)OC(=O)CSC#N)C)C,pubchem,0,0,0,0,randonly selected as training point or test point
"N-(2,4-dimethylphenyl)-3-oxobutanamide",444.15,1,CC1=CC(=C(C=C1)NC(=O)CC(=O)C)C,pubchem,0,0,0,0,randonly selected as training point or test point
1-methyl-4-(2-methyloxiran-2-yl)-7-oxabicyclo[4.1.0]heptane,391.15,1,CC12CCC(CC1O2)C3(CO3)C,pubchem,0,0,0,0,randonly selected as training point or test point
octan-3-one,319.15,1,CCCCCC(=O)CC,pubchem,0,0,0,0,randonly selected as training point or test point
"[(1S,2S,4R)-1,7,7-trimethyl-2-bicyclo[2.2.1]heptanyl] acetate",361.15,1,CC(=O)OC1CC2CCC1(C2(C)C)C,pubchem,0,0,0,0,randonly selected as training point or test point
[(E)-prop-1-enyl]benzene,325.15,1,CC=CC1=CC=CC=C1,pubchem,0,0,0,0,randonly selected as training point or test point
N-chloroaniline,381.15,1,C1=CC=C(C=C1)NCl,pubchem,0,0,0,0,randonly selected as training point or test point
"(1Z,3Z)-cycloocta-1,3-diene",308.15,1,C1CCC=CC=CC1,pubchem,0,0,0,0,randonly selected as training point or test point
dichlorochromium;octadecanoic acid;hydrate,275.15,1,CCCCCCCCCCCCCCCCCC(=O)O.O.Cl[Cr]Cl.Cl[Cr]Cl,pubchem,0,1,0,1,randonly selected as training point or test point
"(1S,2S,5R)-5-methyl-2-propan-2-ylcyclohexan-1-ol",364.15,1,CC1CCC(C(C1)O)C(C)C,pubchem,0,0,0,0,randonly selected as training point or test point
"(2S)-1,7,7-trimethylbicyclo[2.2.1]heptan-2-ol",339.15,1,CC1(C2CCC1(C(C2)O)C)C,pubchem,0,0,0,0,randonly selected as training point or test point
(4R)-1-methyl-4-prop-1-en-2-ylcyclohexene,321.15,1,CC1=CCC(CC1)C(=C)C,pubchem,0,0,0,0,randonly selected as training point or test point
"(1S,5S)-6,6-dimethyl-2-methylidenebicyclo[3.1.1]heptane",304.15,1,CC1(C2CCC(=C)C1C2)C,pubchem,0,0,0,0,randonly selected as training point or test point
"(1S,5S)-2,6,6-trimethylbicyclo[3.1.1]hept-2-ene",306.15,1,CC1=CCC2CC1C2(C)C,pubchem,0,0,0,0,randonly selected as training point or test point
"[(2R)-1,7,7-trimethyl-2-bicyclo[2.2.1]heptanyl] acetate",361.15,1,CC(=O)OC1CC2CCC1(C2(C)C)C,pubchem,0,0,0,0,randonly selected as training point or test point
"[(2S)-1,7,7-trimethyl-2-bicyclo[2.2.1]heptanyl] acetate",361.15,1,CC(=O)OC1CC2CCC1(C2(C)C)C,pubchem,0,0,0,0,randonly selected as training point or test point
"(1S,4S)-1,7,7-trimethylbicyclo[2.2.1]heptan-2-one",339.15,1,CC1(C2CCC1(C(=O)C2)C)C,pubchem,0,0,0,0,randonly selected as training point or test point
(E)-but-2-enedioic acid,546.15,1,C(=CC(=O)O)C(=O)O,pubchem,0,0,0,1,randonly selected as training point or test point
(Z)-octadec-9-enoic acid,462.15,1,CCCCCCCCC=CCCCCCCCC(=O)O,pubchem,0,0,0,1,randonly selected as training point or test point
(E)-but-2-enal,286.15,1,CC=CC=O,pubchem,0,0,0,0,randonly selected as training point or test point
4-[(E)-4-(4-hydroxyphenyl)hex-3-en-3-yl]phenol,377.15,1,CCC(=C(CC)C1=CC=C(C=C1)O)C2=CC=C(C=C2)O,pubchem,0,0,0,0,randonly selected as training point or test point
ethoxyethane;trifluoroborane,337.15,1,B(F)(F)F.CCOCC,pubchem,0,1,0,0,randonly selected as training point or test point
"6-methylheptyl 2-(2,4,5-trichlorophenoxy)acetate",342.15,1,CC(C)CCCCCOC(=O)COC1=CC(=C(C=C1Cl)Cl)Cl,pubchem,0,0,0,0,randonly selected as training point or test point
(2-methylphenyl) diphenyl phosphate,505.15,1,CC1=CC=CC=C1OP(=O)(OC2=CC=CC=C2)OC3=CC=CC=C3,pubchem,0,0,0,0,randonly selected as training point or test point
butan-1-ol;titanium,350.15,1,CCCCO.CCCCO.CCCCO.CCCCO.[Ti],pubchem,0,1,0,0,randonly selected as training point or test point
"1,1-dichloropentane",314.15,1,CCCCC(Cl)Cl,pubchem,0,0,0,0,randonly selected as training point or test point
2-bromo-2-chloroacetic acid,383.15,1,C(C(=O)O)(Cl)Br,pubchem,0,0,0,1,randonly selected as training point or test point
"6-methylheptyl 2-(2,4,5-trichlorophenoxy)propanoate",480.15,1,CC(C)CCCCCOC(=O)C(C)OC1=CC(=C(C=C1Cl)Cl)Cl,pubchem,0,0,0,0,randonly selected as training point or test point
(E)-but-2-enoic acid,361.15,1,CC=CC(=O)O,pubchem,0,0,0,1,randonly selected as training point or test point
(E)-3-phenylprop-2-enal,344.15,1,C1=CC=C(C=C1)C=CC=O,pubchem,0,0,0,0,randonly selected as training point or test point
"[(1R,2R,4R)-1,7,7-trimethyl-2-bicyclo[2.2.1]heptanyl] acetate",361.15,1,CC(=O)OC1CC2CCC1(C2(C)C)C,pubchem,0,0,0,0,randonly selected as training point or test point
1-methoxy-4-[(E)-prop-1-enyl]benzene,364.15,1,CC=CC1=CC=C(C=C1)OC,pubchem,0,0,0,0,randonly selected as training point or test point
"(2E)-3,7-dimethylocta-2,6-dien-1-ol",381.15,1,CC(=CCCC(=CCO)C)C,pubchem,0,0,0,0,randonly selected as training point or test point
"(Z)-1,3-dichlorobut-2-ene",300.15,1,CC(=CCCl)Cl,pubchem,0,0,0,0,randonly selected as training point or test point
"(2E)-3,7-dimethylocta-2,6-dienal",375.15,1,CC(=CCCC(=CC=O)C)C,pubchem,0,0,0,0,randonly selected as training point or test point
"(1E,5E,9E)-cyclododeca-1,5,9-triene",344.15,1,C1CC=CCCC=CCCC=C1,pubchem,0,0,0,0,randonly selected as training point or test point
diethyl (E)-but-2-enedioate,377.15,1,CCOC(=O)C=CC(=O)OCC,pubchem,0,0,0,0,randonly selected as training point or test point
"(E)-1,2-dichloroethene",277.15,1,C(=CCl)Cl,pubchem,0,0,0,0,randonly selected as training point or test point
"(E)-1,4-dichlorobut-2-ene",326.15,1,C(C=CCCl)Cl,pubchem,0,0,0,0,randonly selected as training point or test point
"(2E,4E)-hexa-2,4-dienoic acid",400.15,1,CC=CC=CC(=O)O,pubchem,0,0,0,1,randonly selected as training point or test point
"(2Z)-3,7-dimethylocta-2,6-dienal",375.15,1,CC(=CCCC(=CC=O)C)C,pubchem,0,0,0,0,randonly selected as training point or test point
"(Z)-but-2-ene-1,4-diol",401.15,1,C(C=CCO)O,pubchem,0,0,0,0,randonly selected as training point or test point
(Z)-but-2-enoic acid,361.15,1,CC=CC(=O)O,pubchem,0,0,0,1,randonly selected as training point or test point
"(2Z)-3,7-dimethylocta-2,6-dien-1-ol",380.15,1,CC(=CCCC(=CCO)C)C,pubchem,0,0,0,0,randonly selected as training point or test point
"(Z)-1,2-dichloroethene",277.15,1,C(=CCl)Cl,pubchem,0,0,0,0,randonly selected as training point or test point
"(E)-1,3-dichlorobut-2-ene",300.15,1,CC(=CCCl)Cl,pubchem,0,0,0,0,randonly selected as training point or test point
"(1R,4R)-1,7,7-trimethylbicyclo[2.2.1]heptan-2-ol",339.15,1,CC1(C2CCC1(C(C2)O)C)C,pubchem,0,0,0,0,randonly selected as training point or test point
"3H-1,3-benzothiazole-2-thione",473.15,1,C1=CC=C2C(=C1)NC(=S)S2,pubchem,0,0,0,0,randonly selected as training point or test point
2-methoxy-4-[(E)-prop-1-enyl]phenol,386.15,1,CC=CC1=CC(=C(C=C1)O)OC,pubchem,0,0,0,0,randonly selected as training point or test point
"(1S,2R,4S)-1,7,7-trimethylbicyclo[2.2.1]heptan-2-ol",339.15,1,CC1(C2CCC1(C(C2)O)C)C,pubchem,0,0,0,0,randonly selected as training point or test point
"(4R,4aS,6R)-4,4a-dimethyl-6-prop-1-en-2-yl-3,4,5,6,7,8-hexahydronaphthalen-2-one",373.15,1,CC1CC(=O)C=C2C1(CC(CC2)C(=C)C)C,pubchem,0,0,0,0,randonly selected as training point or test point
(E)-N-[(4-hydroxy-3-methoxyphenyl)methyl]-8-methylnon-6-enamide,386.15,1,CC(C)C=CCCCCC(=O)NCC1=CC(=C(C=C1)O)OC,pubchem,0,0,0,0,randonly selected as training point or test point
3-methyl-2-[(Z)-pent-2-enyl]cyclopent-2-en-1-one,380.15,1,CCC=CCC1=C(CCC1=O)C,pubchem,0,0,0,0,randonly selected as training point or test point
3-methyl-2-[(E)-pent-2-enyl]cyclopent-2-en-1-one,380.15,1,CCC=CCC1=C(CCC1=O)C,pubchem,0,0,0,0,randonly selected as training point or test point
"(2Z,4E)-hexa-2,4-dienoic acid",400.15,1,CC=CC=CC(=O)O,pubchem,0,0,0,1,randonly selected as training point or test point
"(2E,4E)-hexa-2,4-dienoate",400.15,1,CC=CC=CC(=O)[O-],pubchem,0,0,0,0,randonly selected as training point or test point
methyl (2S)-5-(diaminomethylideneamino)-2-[(4-methylphenyl)sulfonylamino]pentanoate,262.15,1,CC1=CC=C(C=C1)S(=O)(=O)NC(CCCN=C(N)N)C(=O)OC,pubchem,0,0,0,0,randonly selected as training point or test point
"(1S,2S,5S)-5-methyl-2-propan-2-ylcyclohexan-1-ol",364.15,1,CC1CCC(C(C1)O)C(C)C,pubchem,0,0,0,0,randonly selected as training point or test point
imidazolidine-2-thione,525.15,1,C1CNC(=S)N1,pubchem,0,0,0,0,randonly selected as training point or test point
"(E)-2,3-dichloro-4-oxobut-2-enoic acid",373.15,1,C(=O)C(=C(C(=O)O)Cl)Cl,pubchem,0,0,0,1,randonly selected as training point or test point
3-[bis(2-carboxyethyl)phosphanyl]propanoic acid;hydrochloride,475.15,1,C(CP(CCC(=O)O)CCC(=O)O)C(=O)O.Cl,pubchem,0,0,0,1,randonly selected as training point or test point
"(Z)-2,3-dichloro-4-oxobut-2-enoic acid",373.15,1,C(=O)C(=C(C(=O)O)Cl)Cl,pubchem,0,0,0,1,randonly selected as training point or test point
"7a-methyl-4,5,6,7-tetrahydro-3aH-2-benzofuran-1,3-dione",623.15,1,CC12CCCCC1C(=O)OC2=O,pubchem,0,0,0,0,randonly selected as training point or test point
manganese(2+);N-[2-(sulfidocarbothioylamino)ethyl]carbamodithioate,411.15,1,C(CNC(=S)[S-])NC(=S)[S-].[Mn+2],pubchem,0,1,0,0,randonly selected as training point or test point
"1,2-diisocyanatonaphthalene",465.15,1,C1=CC=C2C(=C1)C=CC(=C2N=C=O)N=C=O,pubchem,0,0,0,0,randonly selected as training point or test point
chromium(3+);octadecanoate;tetrachloride;hydroxide,275.15,1,CCCCCCCCCCCCCCCCCC(=O)[O-].[OH-].[Cl-].[Cl-].[Cl-].[Cl-].[Cr+3].[Cr+3],pubchem,0,1,0,0,randonly selected as training point or test point
zinc;manganese(2+);N-[2-(sulfidocarbothioylamino)ethyl]carbamodithioate,411.15,1,C(CNC(=S)[S-])NC(=S)[S-].C(CNC(=S)[S-])NC(=S)[S-].[Mn+2].[Zn+2],pubchem,0,1,0,0,randonly selected as training point or test point
1-(3-methoxypropoxy)propyl acetate,359.15,1,CCC(OCCCOC)OC(=O)C,pubchem,0,0,0,0,randonly selected as training point or test point
"[(1S,2S,4S)-1,7,7-trimethyl-2-bicyclo[2.2.1]heptanyl] 2-thiocyanatoacetate",355.15,1,CC1(C2CCC1(C(C2)OC(=O)CSC#N)C)C,pubchem,0,0,0,0,randonly selected as training point or test point
sodium;chloro-(4-methylphenyl)sulfonylazanide,465.15,1,CC1=CC=C(C=C1)S(=O)(=O)[N-]Cl.[Na+],pubchem,0,1,0,0,randonly selected as training point or test point
2-hydroperoxy-2-(2-hydroperoxybutan-2-ylperoxy)butane,355.15,1,CCC(C)(OO)OOC(C)(CC)OO,pubchem,0,0,0,0,randonly selected as training point or test point
dichlorochromium;1-hydroxyoctadecylideneoxidanium;hydrate,275.15,1,CCCCCCCCCCCCCCCCCC(=[OH+])O.O.Cl[Cr]Cl.Cl[Cr]Cl,pubchem,0,1,0,0,randonly selected as training point or test point
"5-(4-chlorophenyl)-N-cyclohexyl-4-methyl-2-oxo-1,3-thiazolidine-3-carboxamide",373.15,1,CC1C(SC(=O)N1C(=O)NC2CCCCC2)C3=CC=C(C=C3)Cl,pubchem,0,0,0,0,randonly selected as training point or test point
"trichloro-(3,4-dichlorophenyl)silane",414.15,1,C1=CC(=C(C=C1[Si](Cl)(Cl)Cl)Cl)Cl,pubchem,1,1,0,0,randonly selected as training point or test point
methyl carbonate,291.15,1,COC(=O)[O-],pubchem,0,0,0,0,randonly selected as training point or test point
"2-amino-4,6-dinitrophenol",483.15,1,C1=C(C=C(C(=C1[N+](=O)[O-])O)N)[N+](=O)[O-],pubchem,0,0,0,0,randonly selected as training point or test point
2-sulfanylacetate,403.15,1,C(C(=O)[O-])S,pubchem,0,0,0,0,randonly selected as training point or test point
(Z)-3-phenylprop-2-en-1-ol,399.15,1,C1=CC=C(C=C1)C=CCO,pubchem,0,0,0,0,randonly selected as training point or test point
"(2R,3S,4S,5R,6R)-2-(hydroxymethyl)-6-[(E)-3-phenylprop-2-enoxy]oxane-3,4,5-triol",460.15,1,C1=CC=C(C=C1)C=CCOC2C(C(C(C(O2)CO)O)O)O,pubchem,0,0,0,0,randonly selected as training point or test point
(Z)-hex-3-en-1-ol,403.15,1,CCC=CCCO,pubchem,0,0,0,0,randonly selected as training point or test point
"(1R,4E,9S)-4,11,11-trimethyl-8-methylidenebicyclo[7.2.0]undec-4-ene",374.15,1,CC1=CCCC(=C)C2CC(C2CC1)(C)C,pubchem,0,0,0,0,randonly selected as training point or test point
"(1R,4Z,9S)-4,11,11-trimethyl-8-methylidenebicyclo[7.2.0]undec-4-ene",374.15,1,CC1=CCCC(=C)C2CC(C2CC1)(C)C,pubchem,0,0,0,0,randonly selected as training point or test point
"(2-methyl-3-phenylphenyl)methyl 3-[(Z)-2-chloro-3,3,3-trifluoroprop-1-enyl]-2,2-dimethylcyclopropane-1-carboxylate",438.15,1,CC1=C(C=CC=C1COC(=O)C2C(C2(C)C)C=C(C(F)(F)F)Cl)C3=CC=CC=C3,pubchem,0,0,0,0,randonly selected as training point or test point
"(E)-4-(2,6,6-trimethylcyclohex-2-en-1-yl)but-3-en-2-one",391.15,1,CC1=CCCC(C1C=CC(=O)C)(C)C,pubchem,0,0,0,0,randonly selected as training point or test point
"(4R,4aR,7S,7aR,12bS)-9-methoxy-3-methyl-2,4,4a,7,7a,13-hexahydro-1H-4,12-methanobenzofuro[3,2-e]isoquinolin-7-ol",348.15,1,CN1CCC23C4C1CC5=C2C(=C(C=C5)OC)OC3C(C=C4)O,pubchem,0,0,0,0,randonly selected as training point or test point
"S-[(Z)-2,3-dichloroprop-2-enyl] N,N-di(propan-2-yl)carbamothioate",369.15,1,CC(C)N(C(C)C)C(=O)SCC(=CCl)Cl,pubchem,0,0,0,0,randonly selected as training point or test point
"1,4,5,6,7,7-hexachloro-2,2-bis(chloromethyl)-3-methylidenebicyclo[2.2.1]heptane",302.15,1,C=C1C(C2(C(C(C1(C2(Cl)Cl)Cl)Cl)Cl)Cl)(CCl)CCl,pubchem,0,0,0,0,randonly selected as training point or test point
zinc;N-[2-(sulfidocarbothioylamino)ethyl]carbamodithioate,363.15,1,C(CNC(=S)[S-])NC(=S)[S-].[Zn+2],pubchem,0,1,0,0,randonly selected as training point or test point
"(4R,4aR,7aR,12bS)-9-methoxy-3-methyl-1,2,4,4a,5,6,7a,13-octahydro-4,12-methanobenzofuro[3,2-e]isoquinolin-7-one",282.15,1,CN1CCC23C4C1CC5=C2C(=C(C=C5)OC)OC3C(=O)CC4,pubchem,0,0,0,0,randonly selected as training point or test point
(Z)-but-2-ene,262.15,1,CC=CC,pubchem,0,0,0,0,randonly selected as training point or test point
[(E)-2-bromoethenyl]benzene,352.15,1,C1=CC=C(C=C1)C=CBr,pubchem,0,0,0,0,randonly selected as training point or test point
(E)-3-phenylprop-2-en-1-ol,399.15,1,C1=CC=C(C=C1)C=CCO,pubchem,0,0,0,0,randonly selected as training point or test point
"(4Z)-4,11,11-trimethyl-8-methylidenebicyclo[7.2.0]undec-4-ene",374.15,1,CC1=CCCC(=C)C2CC(C2CC1)(C)C,pubchem,0,0,0,0,randonly selected as training point or test point
(NE)-N-butan-2-ylidenehydroxylamine,332.15,1,CCC(=NO)C,pubchem,0,0,0,0,randonly selected as training point or test point
(NZ)-N-butan-2-ylidenehydroxylamine,332.15,1,CCC(=NO)C,pubchem,0,0,0,0,randonly selected as training point or test point
(NZ)-N-butylidenehydroxylamine,331.15,1,CCCC=NO,pubchem,0,0,0,0,randonly selected as training point or test point
(NE)-N-butylidenehydroxylamine,331.15,1,CCCC=NO,pubchem,0,0,0,0,randonly selected as training point or test point
(E)-pent-3-enenitrile,311.15,1,CC=CCC#N,pubchem,0,0,0,0,randonly selected as training point or test point
"(3E)-3-(dimethylcarbamoylimino)-1,1-dimethylurea",313.15,1,CN(C)C(=O)N=NC(=O)N(C)C,pubchem,0,0,0,0,randonly selected as training point or test point
(E)-2-ethylhex-2-enal,341.15,1,CCCC=C(CC)C=O,pubchem,0,0,0,0,randonly selected as training point or test point
butyl (Z)-octadec-9-enoate,453.15,1,CCCCCCCCC=CCCCCCCCC(=O)OCCCC,pubchem,0,0,0,0,randonly selected as training point or test point
"(4E)-4,11,11-trimethyl-8-methylidenebicyclo[7.2.0]undec-4-ene",374.15,1,CC1=CCCC(=C)C2CC(C2CC1)(C)C,pubchem,0,0,0,0,randonly selected as training point or test point
(Z)-2-methyl-3-phenylprop-2-enal,352.15,1,CC(=CC1=CC=CC=C1)C=O,pubchem,0,0,0,0,randonly selected as training point or test point
methyl (E)-3-dimethoxyphosphoryloxybut-2-enoate,352.15,1,CC(=CC(=O)OC)OP(=O)(OC)OC,pubchem,0,0,0,0,randonly selected as training point or test point
"(1Z,5E,9Z)-cyclododeca-1,5,9-triene",344.15,1,C1CC=CCCC=CCCC=C1,pubchem,0,0,0,0,randonly selected as training point or test point
"3-[(E)-dodec-2-enyl]oxolane-2,5-dione",451.15,1,CCCCCCCCCC=CCC1CC(=O)OC1=O,pubchem,0,0,0,0,randonly selected as training point or test point
(Z)-acetyloxymethylimino-methyl-oxidoazanium,372.15,1,CC(=O)OCN=[N+](C)[O-],pubchem,0,0,0,0,randonly selected as training point or test point
(E)-pent-2-enenitrile,296.15,1,CCC=CC#N,pubchem,0,0,0,0,randonly selected as training point or test point
"(1Z,5Z,9Z)-cyclododeca-1,5,9-triene",344.15,1,C1CC=CCCC=CCCC=C1,pubchem,0,0,0,0,randonly selected as training point or test point
(E)-non-2-ene,299.15,1,CCCCCCC=CC,pubchem,0,0,0,0,randonly selected as training point or test point
bis(2-ethylhexyl) (Z)-but-2-enedioate,458.15,1,CCCCC(CC)COC(=O)C=CC(=O)OCC(CC)CCCC,pubchem,0,0,0,0,randonly selected as training point or test point
(5E)-5-ethylidenebicyclo[2.2.1]hept-2-ene,299.15,1,CC=C1CC2CC1C=C2,pubchem,0,0,0,0,randonly selected as training point or test point
"(4E)-hexa-1,4-diene",252.15,1,CC=CCC=C,pubchem,0,0,0,0,randonly selected as training point or test point