compound,flashpoint,pure substance,smiles,source,is_silicon,is_metallic,is_tin,is_acid,data type
PHENYLTRI-n-BUTYLTIN,380.15,1,CCCC[Sn](CCCC)(CCCC)c1ccccc1,gelest_tin,0,1,1,0,randonly selected as training point or test point
PHENYLTHIOTRI-n-BUTYLTIN,377.15,1,CCCC[Sn](CCCC)(CCCC)Sc1ccccc1,gelest_tin,0,1,1,0,randonly selected as training point or test point
TETRAALLYLTIN,348.15,1,C=CC[Sn](CC=C)(CC=C)CC=C,gelest_tin,0,1,1,0,randonly selected as training point or test point
TETRABUTYLDILAURYLDISTANNOXANE,504.15,1,CCCCCCCCCCCC[Sn](CCCC)(CCCCCCCCCCCC)O[Sn](CCCC)(CCCC)CCCC,gelest_tin,0,1,1,0,randonly selected as training point or test point
TETRA-n-BUTYLTIN,274.15,1,CCCC[Sn](CCCC)(CCCC)CCCC,gelest_tin,0,1,1,0,randonly selected as training point or test point
TETRA-n-BUTYLTIN,380.15,1,CCCC[Sn](CCCC)(CCCC)CCCC,gelest_tin,0,1,1,0,randonly selected as training point or test point
TETRAETHYLTIN,326.15,1,CC[Sn](CC)(CC)CC,gelest_tin,0,1,1,0,randonly selected as training point or test point
TETRAKIS(DIETHYLAMINO)TIN,312.15,1,CCN(CC)[Sn](N(CC)CC)(N(CC)CC)N(CC)CC,gelest_tin,0,1,1,0,randonly selected as training point or test point
TETRAMETHYLTIN,261.15,1,C[Sn](C)(C)C,gelest_tin,0,1,1,0,randonly selected as training point or test point
TETRA-n-OCTYLTIN,367.15,1,CCCCCCCC[Sn](CCCCCCCC)(CCCCCCCC)CCCCCCCC,gelest_tin,0,1,1,0,randonly selected as training point or test point
TETRAPHENYLTIN,504.15,1,c1ccc([Sn](c2ccccc2)(c2ccccc2)c2ccccc2)cc1,gelest_tin,0,1,1,0,randonly selected as training point or test point
TETRAVINYLTIN,313.15,1,C=C[Sn](C=C)(C=C)C=C,gelest_tin,0,1,1,0,randonly selected as training point or test point
2-THIENYLTRI-n-BUTYLTIN,379.15,1,CCCC[Sn](CCCC)(CCCC)c1cccs1,gelest_tin,0,1,1,0,randonly selected as training point or test point
TRI-n-BUTYLACETOXYTIN,393.15,1,CCCCC(CCCC)(CCCC)C(=O)O[Sn],gelest_tin,0,1,1,0,randonly selected as training point or test point
TRI-n-BUTYLCHLOROTIN,393.15,1,CCCC[Sn](Cl)(CCCC)CCCC,gelest_tin,0,1,1,0,randonly selected as training point or test point
TRI-n-BUTYLETHOXYTIN,377.15,1,CCCC[Sn](CCCC)(CCCC)OCC,gelest_tin,0,1,1,0,randonly selected as training point or test point
TRI-n-BUTYLIODOTIN,386.15,1,CCCC[Sn](I)(CCCC)CCCC,gelest_tin,0,1,1,0,randonly selected as training point or test point
TRI-n-BUTYLMETHOXYTIN,371.15,1,CCCC[Sn](CCCC)(CCCC)OC,gelest_tin,0,1,1,0,randonly selected as training point or test point
TRI-n-BUTYLTIN HYDRIDE,313.15,1,CCCC[SnH](CCCC)CCCC,gelest_tin,0,1,1,0,randonly selected as training point or test point
TRICYCLOHEXYLTIN HYDRIDE,378.15,1,C1CCC([SnH](C2CCCCC2)C2CCCCC2)CC1,gelest_tin,0,1,1,0,randonly selected as training point or test point
TRIETHYLBROMOTIN,372.15,1,CC[Sn](Br)(CC)CC,gelest_tin,0,1,1,0,randonly selected as training point or test point
TRIMETHYLCHLOROTIN,370.15,1,C[Sn](C)(C)Cl,gelest_tin,0,1,1,0,randonly selected as training point or test point
TRIPHENYLCHLOROTIN,343.15,1,Cl[Sn](c1ccccc1)(c1ccccc1)c1ccccc1,gelest_tin,0,1,1,0,randonly selected as training point or test point
Acetaldehyde,235.15,1,CC=O,hazardous materials,0,0,0,0,randonly selected as training point or test point
Acetanilide,447.15,1,CC(=O)Nc1ccccc1,hazardous materials,0,0,0,0,randonly selected as training point or test point
Acetic acid,316.15,1,CC(=O)O,hazardous materials,0,0,0,1,randonly selected as training point or test point
Acetic anhydride,327.15,1,CC(=O)OC(C)=O,hazardous materials,0,0,0,0,randonly selected as training point or test point
Acetone,255.15,1,CC(C)=O,hazardous materials,0,0,0,0,randonly selected as training point or test point
Acetone cyanohydrin,347.15,1,CC(C)(O)C#N,hazardous materials,0,0,0,0,randonly selected as training point or test point
Acetonitrile,279.15,1,CC#N,hazardous materials,0,0,0,0,randonly selected as training point or test point
Acetyl chloride,277.15,1,CC(=O)Cl,hazardous materials,0,0,0,0,randonly selected as training point or test point
Acetyl peroxide,386.15,1,CC(=O)OOC(C)=O,hazardous materials,0,0,0,0,randonly selected as training point or test point
Acrolein,247.15,1,C=CC=O,hazardous materials,0,0,0,0,randonly selected as training point or test point
Acrylic acid,325.15,1,C=CC(=O)O,hazardous materials,0,0,0,1,randonly selected as training point or test point
Acrylonitrile,273.15,1,C=CC#N,hazardous materials,0,0,0,0,randonly selected as training point or test point
Adipic acid,464.15,1,O=C(O)CCCCC(=O)O,hazardous materials,0,0,0,1,randonly selected as training point or test point
Adiponitrile,366.15,1,N#CCCCCC#N,hazardous materials,0,0,0,0,randonly selected as training point or test point
Allyl acetate,294.15,1,C=CCOC(C)=O,hazardous materials,0,0,0,0,randonly selected as training point or test point
Allyl alcohol,294.15,1,C=CCO,hazardous materials,0,0,0,0,randonly selected as training point or test point
Allyl amine,244.15,1,C=CCN,hazardous materials,0,0,0,0,randonly selected as training point or test point
Allyl bromide,272.15,1,C=CCBr,hazardous materials,0,0,0,0,randonly selected as training point or test point
Allyl chloride,241.15,1,C=CCCl,hazardous materials,0,0,0,0,randonly selected as training point or test point
Allyl chloroformate,304.15,1,C=CCOC(=O)Cl,hazardous materials,0,0,0,0,randonly selected as training point or test point
Allyl glycidyl ether,330.15,1,C=CCOCC1CO1,hazardous materials,0,0,0,0,randonly selected as training point or test point
Aminoethylethanol amine,402.15,1,NCCC(O)CN,hazardous materials,0,0,0,0,randonly selected as training point or test point
iso-Amyl acetate,296.15,1,CC(=O)OCCC(C)C,hazardous materials,0,0,0,0,randonly selected as training point or test point
sec-Amyl acetate,305.15,1,CCCC(C)OC(C)=O,hazardous materials,0,0,0,0,randonly selected as training point or test point
iso-Amyl alcohol,316.15,1,CC(C)CCO,hazardous materials,0,0,0,0,randonly selected as training point or test point
tert-Amyl alcohol,292.15,1,CCC(C)(C)O,hazardous materials,0,0,0,0,randonly selected as training point or test point
Amylamine,280.15,1,CCCCCN,hazardous materials,0,0,0,0,randonly selected as training point or test point
iso-Amyl formate,299.15,1,CC(C)CCOC=O,hazardous materials,0,0,0,0,randonly selected as training point or test point
Amyl mercaptan,291.15,1,CCCCCS,hazardous materials,0,0,0,0,randonly selected as training point or test point
iso-Amyl nitrate,325.15,1,CC(C)CCO[N+](=O)[O-],hazardous materials,0,0,0,0,randonly selected as training point or test point
Amyl nitrite,283.15,1,CCCCCON=O,hazardous materials,0,0,0,0,randonly selected as training point or test point
Aniline,343.15,1,Nc1ccccc1,hazardous materials,0,0,0,0,randonly selected as training point or test point
o-Anisaldehyde,391.15,1,COc1ccccc1C=O,hazardous materials,0,0,0,0,randonly selected as training point or test point
Anisole,325.15,1,COc1ccccc1,hazardous materials,0,0,0,0,randonly selected as training point or test point
Anthracene,394.15,1,c1ccc2cc3ccccc3cc2c1,hazardous materials,0,0,0,0,randonly selected as training point or test point
Anthraquinone,458.15,1,O=C1c2ccccc2C(=O)c2ccccc21,hazardous materials,0,0,0,0,randonly selected as training point or test point
Aziridine,262.15,1,C1CN1,hazardous materials,0,0,0,0,randonly selected as training point or test point
Benzaldehyde,337.15,1,O=Cc1ccccc1,hazardous materials,0,0,0,0,randonly selected as training point or test point
Benzene,262.15,1,c1ccccc1,hazardous materials,0,0,0,0,randonly selected as training point or test point
Benzoic acid,394.15,1,O=C(O)c1ccccc1,hazardous materials,0,0,0,1,randonly selected as training point or test point
Benzonitrile,358.15,1,N#Cc1ccccc1,hazardous materials,0,0,0,0,randonly selected as training point or test point
Benzotrifluoride,285.15,1,FC(F)(F)c1ccccc1,hazardous materials,0,0,0,0,randonly selected as training point or test point
Benzoyl chloride,345.15,1,O=C(Cl)c1ccccc1,hazardous materials,0,0,0,0,randonly selected as training point or test point
Benzyl acetate,375.15,1,CC(=O)OCc1ccccc1,hazardous materials,0,0,0,0,randonly selected as training point or test point
Benzyl alcohol,374.15,1,OCc1ccccc1,hazardous materials,0,0,0,0,randonly selected as training point or test point
Benzylamine,336.15,1,NCc1ccccc1,hazardous materials,0,0,0,0,randonly selected as training point or test point
Benzyl benzoate,421.15,1,O=C(OCc1ccccc1)c1ccccc1,hazardous materials,0,0,0,0,randonly selected as training point or test point
Benzyl chloride,340.15,1,ClCc1ccccc1,hazardous materials,0,0,0,0,randonly selected as training point or test point
Benzyl mercaptan,343.15,1,SCc1ccccc1,hazardous materials,0,0,0,0,randonly selected as training point or test point
Bicyclohexyl,347.15,1,C1CCC(C2CCCCC2)CC1,hazardous materials,0,0,0,0,randonly selected as training point or test point
Biphenyl,386.15,1,c1ccc(-c2ccccc2)cc1,hazardous materials,0,0,0,0,randonly selected as training point or test point
Bromobenzene,324.15,1,Brc1ccccc1,hazardous materials,0,0,0,0,randonly selected as training point or test point
o-Bromotoluene,352.15,1,Cc1ccccc1Br,hazardous materials,0,0,0,0,randonly selected as training point or test point
n-Butane,213.15,1,CCCC,hazardous materials,0,0,0,0,randonly selected as training point or test point
1-Butene,193.15,1,C=CCC,hazardous materials,0,0,0,0,randonly selected as training point or test point
n-Butyl acetate,300.15,1,CCCCOC(C)=O,hazardous materials,0,0,0,0,randonly selected as training point or test point
iso-Butyl acetate,291.15,1,CC(=O)OCC(C)C,hazardous materials,0,0,0,0,randonly selected as training point or test point
sec-Butyl acetate,304.15,1,CCC(C)OC(C)=O,hazardous materials,0,0,0,0,randonly selected as training point or test point
n-Butyl alcohol,302.15,1,CCCCO,hazardous materials,0,0,0,0,randonly selected as training point or test point
iso-Butyl alcohol,301.15,1,CC(C)CO,hazardous materials,0,0,0,0,randonly selected as training point or test point
sec-Butyl alcohol,297.15,1,CCC(C)O,hazardous materials,0,0,0,0,randonly selected as training point or test point
tert-Butyl alcohol,283.15,1,CC(C)(C)O,hazardous materials,0,0,0,0,randonly selected as training point or test point
Butylamine,261.15,1,CCCCN,hazardous materials,0,0,0,0,randonly selected as training point or test point
iso-Butylamine,264.15,1,CC(C)CN,hazardous materials,0,0,0,0,randonly selected as training point or test point
n-Butyl benzene,344.15,1,CCCCc1ccccc1,hazardous materials,0,0,0,0,randonly selected as training point or test point
iso-Butyl benzene,325.15,1,CC(C)Cc1ccccc1,hazardous materials,0,0,0,0,randonly selected as training point or test point
n-Butyl bromide,291.15,1,CCCCBr,hazardous materials,0,0,0,0,randonly selected as training point or test point
n-Butyl chloride,280.15,1,CCCCCl,hazardous materials,0,0,0,0,randonly selected as training point or test point
"1,3-Butylene glycol",394.15,1,CC(O)CCO,hazardous materials,0,0,0,0,randonly selected as training point or test point
"2,3-Butylene glycol",358.15,1,CC(O)C(C)O,hazardous materials,0,0,0,0,randonly selected as training point or test point
n-Butyl formate,291.15,1,CCCCOC=O,hazardous materials,0,0,0,0,randonly selected as training point or test point
Butyl lactate,344.15,1,CCCCOC(=O)C(C)O,hazardous materials,0,0,0,0,randonly selected as training point or test point
Butyl mercaptan,275.15,1,CCCCS,hazardous materials,0,0,0,0,randonly selected as training point or test point
Butyl methacrylate,325.15,1,C=C(C)C(=O)OCCCC,hazardous materials,0,0,0,0,randonly selected as training point or test point
Isobutyl methyl ketone,290.15,1,CC(=O)CC(C)C,hazardous materials,0,0,0,0,randonly selected as training point or test point
tert-Butyl perbenzoate,361.15,1,CC(C)(C)OOC(=O)c1ccccc1,hazardous materials,0,0,0,0,randonly selected as training point or test point
Butyl vinyl ether,264.15,1,C=COCCCC,hazardous materials,0,0,0,0,randonly selected as training point or test point
n-Butyraldehyde,266.45,1,CCCC=O,hazardous materials,0,0,0,0,randonly selected as training point or test point
n-Butyric acid,339.15,1,CCCC(=O)O,hazardous materials,0,0,0,1,randonly selected as training point or test point
n-Butyric anhydride,361.15,1,CCCC(=O)OC(=O)CCC,hazardous materials,0,0,0,0,randonly selected as training point or test point
2-Butyrolactone,371.15,1,CCC1OC1=O,hazardous materials,0,0,0,0,randonly selected as training point or test point
n-Butyronitrile,299.15,1,CCCC#N,hazardous materials,0,0,0,0,randonly selected as training point or test point
Camphor,339.15,1,CC12CCC(CC1=O)C2(C)C,hazardous materials,0,0,0,0,randonly selected as training point or test point
Caproic acid,375.15,1,CCCCCC(=O)O,hazardous materials,0,0,0,1,randonly selected as training point or test point
Caprylaldehyde,325.15,1,CCCCCCCC=O,hazardous materials,0,0,0,0,randonly selected as training point or test point
Carbon disulphide,243.15,1,S=C=S,hazardous materials,0,0,0,0,randonly selected as training point or test point
Chloroacetaldehyde,361.15,1,O=CCCl,hazardous materials,0,0,0,0,randonly selected as training point or test point
Chlorobenzene,302.15,1,Clc1ccccc1,hazardous materials,0,0,0,0,randonly selected as training point or test point
"1-Chloro-2,4-dinitrobenzene",467.15,1,O=[N+]([O-])c1ccc(Cl)c([N+](=O)[O-])c1,hazardous materials,0,0,0,0,randonly selected as training point or test point
Chloronaphthalene,405.15,1,Clc1cccc2ccccc12,hazardous materials,0,0,0,0,randonly selected as training point or test point
1-Chloro-1-nitropropane,335.15,1,CCC(Cl)[N+](=O)[O-],hazardous materials,0,0,0,0,randonly selected as training point or test point
o-Chlorophenol,337.15,1,Oc1ccccc1Cl,hazardous materials,0,0,0,0,randonly selected as training point or test point
p-Chlorophenol,394.15,1,Oc1ccc(Cl)cc1,hazardous materials,0,0,0,0,randonly selected as training point or test point
Chlorotrifluoroethylene,246.15,1,FC(F)=C(F)Cl,hazardous materials,0,0,0,0,randonly selected as training point or test point
Cinnamaldehyde,322.15,1,O=CC=Cc1ccccc1,hazardous materials,0,0,0,0,randonly selected as training point or test point
m-Cresol,367.15,1,Cc1cccc(O)c1,hazardous materials,0,0,0,0,randonly selected as training point or test point
o-Cresol,354.15,1,Cc1ccccc1O,hazardous materials,0,0,0,0,randonly selected as training point or test point
p-Cresol,367.15,1,Cc1ccc(O)cc1,hazardous materials,0,0,0,0,randonly selected as training point or test point
Crotonaldehyde,286.15,1,C/C=C/C=O,hazardous materials,0,0,0,0,randonly selected as training point or test point
Cumene,317.15,1,CC(C)c1ccccc1,hazardous materials,0,0,0,0,randonly selected as training point or test point
Cumene hydroperoxide,352.15,1,CC(C)c1ccccc1.[O-]O,hazardous materials,0,0,0,0,randonly selected as training point or test point
Cyclohexane,253.15,1,C1CCCCC1,hazardous materials,0,0,0,0,randonly selected as training point or test point
Cyclohexanol,341.15,1,OC1CCCCC1,hazardous materials,0,0,0,0,randonly selected as training point or test point
Cyclohexanone,317.15,1,O=C1CCCCC1,hazardous materials,0,0,0,0,randonly selected as training point or test point
Cyclohexylamine,305.15,1,NC1CCCCC1,hazardous materials,0,0,0,0,randonly selected as training point or test point
Cyclohexylbenzene,372.15,1,c1ccc(C2CCCCC2)cc1,hazardous materials,0,0,0,0,randonly selected as training point or test point
Cyclopentane,266.15,1,C1CCCC1,hazardous materials,0,0,0,0,randonly selected as training point or test point
Cyclopentanone,299.15,1,O=C1CCCC1,hazardous materials,0,0,0,0,randonly selected as training point or test point
p-Cymene,320.15,1,Cc1ccc(C(C)C)cc1,hazardous materials,0,0,0,0,randonly selected as training point or test point
Decahydronaphthalene,330.15,1,C1CCC2CCCCC2C1,hazardous materials,0,0,0,0,randonly selected as training point or test point
iso-Decaldehyde,358.15,1,CC(C)CCCCCCC=O,hazardous materials,0,0,0,0,randonly selected as training point or test point
n-Decane,319.15,1,CCCCCCCCCC,hazardous materials,0,0,0,0,randonly selected as training point or test point
n-Decyl alcohol,355.15,1,CCCCCCCCCCO,hazardous materials,0,0,0,0,randonly selected as training point or test point
Diacetone alcohol,337.15,1,CC(=O)CC(C)(C)O,hazardous materials,0,0,0,0,randonly selected as training point or test point
Dibutylamine,325.15,1,CCCCNCCCC,hazardous materials,0,0,0,0,randonly selected as training point or test point
Dibutyldichlorotin,628.15,1,CCCC[Sn](Cl)(Cl)CCCC,hazardous materials,0,1,1,0,randonly selected as training point or test point
Di-n-butyl ether,298.15,1,CCCCOCCCC,hazardous materials,0,0,0,0,randonly selected as training point or test point
Dibutyl oxalate,377.15,1,CCCCOC(=O)C(=O)OCCCC,hazardous materials,0,0,0,0,randonly selected as training point or test point
Dibutyl peroxide,291.15,1,CCCCOOCCCC,hazardous materials,0,0,0,0,randonly selected as training point or test point
Dibutyl phosphite,322.15,1,CCCCOP([O-])OCCCC,hazardous materials,0,0,0,0,randonly selected as training point or test point
Dibutyl phthalate,430.15,1,CCCCOC(=O)c1ccccc1C(=O)OCCCC,hazardous materials,0,0,0,0,randonly selected as training point or test point
Dibutyl tartrate,364.15,1,CCCCOC(=O)C(O)C(O)C(=O)OCCCC,hazardous materials,0,0,0,0,randonly selected as training point or test point
Dichloroacetyl chloride,339.15,1,O=C(Cl)C(Cl)Cl,hazardous materials,0,0,0,0,randonly selected as training point or test point
"2,5-Dichloroaniline",439.15,1,Nc1cc(Cl)ccc1Cl,hazardous materials,0,0,0,0,randonly selected as training point or test point
o-Dichlorobenzene,339.15,1,Clc1ccccc1Cl,hazardous materials,0,0,0,0,randonly selected as training point or test point
"1,4-Dichlorobutane",325.15,1,ClCCCCCl,hazardous materials,0,0,0,0,randonly selected as training point or test point
"1,3-Dichloro-2-butene",300.15,1,CC(Cl)=CCCl,hazardous materials,0,0,0,0,randonly selected as training point or test point
"1,1-Dichloroethane",267.15,1,CC(Cl)Cl,hazardous materials,0,0,0,0,randonly selected as training point or test point
"1,1-Dichloro-1-nitroethane",349.15,1,CC(Cl)(Cl)[N+](=O)[O-],hazardous materials,0,0,0,0,randonly selected as training point or test point
"2,4-Dichlorophenol",387.15,1,Oc1ccc(Cl)cc1Cl,hazardous materials,0,0,0,0,randonly selected as training point or test point
"1,2-Dichloropropane",289.15,1,CC(Cl)CCl,hazardous materials,0,0,0,0,randonly selected as training point or test point
"1,3-Dichloropropane",308.15,1,ClCCCCl,hazardous materials,0,0,0,0,randonly selected as training point or test point
Dicyclohexylamine,372.15,1,C1CCC(NC2CCCCC2)CC1,hazardous materials,0,0,0,0,randonly selected as training point or test point
Diethanolamine,425.15,1,OCCNCCO,hazardous materials,0,0,0,0,randonly selected as training point or test point
"N,N-Diethylaniline ",358.15,1,CCN(CC)c1ccccc1,hazardous materials,0,0,0,0,randonly selected as training point or test point
Diethylcarbonate,298.15,1,CCOC(=O)OCC,hazardous materials,0,0,0,0,randonly selected as training point or test point
Diethylene glycol,397.15,1,OCCOCCO,hazardous materials,0,0,0,0,randonly selected as training point or test point
Diethylene glycol-monoethyl ether,369.15,1,CCOCCOCCO,hazardous materials,0,0,0,0,randonly selected as training point or test point
Diethylenetriamine,375.15,1,NCCNCCN,hazardous materials,0,0,0,0,randonly selected as training point or test point
Diethyl ketone,286.15,1,CCC(=O)CC,hazardous materials,0,0,0,0,randonly selected as training point or test point
Diethyl malonate,366.15,1,CCOC(=O)CC(=O)OCC,hazardous materials,0,0,0,0,randonly selected as training point or test point
Diethyl sulphate,377.15,1,CCOS(=O)(=O)OCC,hazardous materials,0,0,0,0,randonly selected as training point or test point
"3,4-Dihydro-2H-pyran",255.15,1,C1=COCCC1,hazardous materials,0,0,0,0,randonly selected as training point or test point
Diisobutyl ketone,333.15,1,CC(C)CC(=O)CC(C)C,hazardous materials,0,0,0,0,randonly selected as training point or test point
Diisobutyl carbinol,347.15,1,CC(C)CC(O)CC(C)C,hazardous materials,0,0,0,0,randonly selected as training point or test point
Diisopropyl amine,272.15,1,CC(C)NC(C)C,hazardous materials,0,0,0,0,randonly selected as training point or test point