compound,flashpoint,pure substance,smiles,source,is_silicon,is_metallic,is_tin,is_acid,data type
Aminoethylaminopropyltrimethoxysilane,269.15,1,NCCNCCC[Si](OC)(OC)OC,chen14,1,1,0,0,randonly selected as training point or test point
Tetramethyldiethoxysiloxane,311.15,1,CC(C(O[Si]([O])OCC)(C)C)C,chen14,1,1,0,0,randonly selected as training point or test point
Octamethyltrisiloxane,303.15,1,C[Si](O[Si](O[Si](C)(C)C)(C)C)(C)C,chen14,1,1,0,0,randonly selected as training point or test point
Octamethylcyclotetrasiloxane,330.15,1,C[Si]1(O[Si](O[Si](O[Si](O1)(C)C)(C)C)(C)C)C,chen14,1,1,0,0,randonly selected as training point or test point
Octamethylcyclotetrasilazane,339.15,1,C[Si]1(N[Si](N[Si](N[Si](N1)(C)C)(C)C)(C)C)C,chen14,1,1,0,0,randonly selected as training point or test point
Tetrakisdimethylsiloxysilane,340.15,1,C[SiH](O[Si](O[SiH](C)C)(O[SiH](C)C)O[SiH](C)C)C,chen14,1,1,0,0,randonly selected as training point or test point
p-Chlorophenyltrimethylsilane,322.15,1,ClC1=CC=C(C=C1)[Si](C)(C)C,chen14,1,1,0,0,randonly selected as training point or test point
Phenyltrimethoxysilane,358.15,1,C1(=CC=CC=C1)[Si](OC)(OC)OC,chen14,1,1,0,0,randonly selected as training point or test point
Trimethylphenylsilane,313.15,1,C[Si](C1=CC=CC=C1)(C)C,chen14,1,1,0,0,randonly selected as training point or test point
Cyclohexylmethyldimethoxysilane,343.15,1,C1(CCCCC1)C[SiH](OC)OC,chen14,1,1,0,0,randonly selected as training point or test point
Hexyltrimethoxysilane,335.15,1,C(CCCCC)[Si](OC)(OC)OC,chen14,1,1,0,0,randonly selected as training point or test point
Triisopropylsilane,310.15,1,C(C)(C)[SiH](C(C)C)C(C)C,chen14,1,1,0,0,randonly selected as training point or test point
Tri-n-propylsilane,316.15,1,C(CC)[SiH](CCC)CCC,chen14,1,1,0,0,randonly selected as training point or test point
Propyltris(dimethylsiloxy)silane,323.15,1,C(CC)[Si](O[SiH](C)C)(O[SiH](C)C)O[SiH](C)C,chen14,1,1,0,0,randonly selected as training point or test point
Benzyltrimethylsilane,335.15,1,C(C1=CC=CC=C1)[Si](C)(C)C,chen14,1,1,0,0,randonly selected as training point or test point
3-Methacryloxypropyltrimethoxysilane,365.15,1,C(C(=C)C)(=O)OCCC[Si](OC)(OC)OC,chen14,1,1,0,0,randonly selected as training point or test point
1-Heptynyltrimethylsilane,315.15,1,C(#CCCCCC)[Si](C)(C)C,chen14,1,1,0,0,randonly selected as training point or test point
n-Octyldimethylchlorosilane,370.15,1,C(CCCCCCC)[Si](Cl)(C)C,chen14,1,1,0,0,randonly selected as training point or test point
Bis(diethylamino)dimethylsilane,308.15,1,C(C)N(CC)[Si](C)(C)N(CC)CC,chen14,1,1,0,0,randonly selected as training point or test point
Decamethyltetrasiloxane,335.15,1,C[Si](O[Si](O[Si](O[Si](C)(C)C)(C)C)(C)C)(C)C,chen14,1,1,0,0,randonly selected as training point or test point
Decamethylcyclopentasiloxane,350.15,1,C[Si]1(O[Si](O[Si](O[Si](O[Si](O1)(C)C)(C)C)(C)C)(C)C)C,chen14,1,1,0,0,randonly selected as training point or test point
"2-(3,4-epoxycyclohexyl)ethyltrimethoxysilane",419.15,1,C1(CC2C(CC1)O2)CC[Si](OC)(OC)OC,chen14,1,1,0,0,randonly selected as training point or test point
n-Decylmethyldichlorosilane,393.15,1,C(CCCCCCCCC)[Si](Cl)(Cl)C,chen14,1,1,0,0,randonly selected as training point or test point
Vinyltriethylsilane,318.15,1,C(=C)[Si](CC)(CC)CC,chen14,1,1,0,0,randonly selected as training point or test point
Diphenyldichlorosilane,415.15,1,C1(=CC=CC=C1)[Si](Cl)(Cl)C1=CC=CC=C1,chen14,1,1,0,0,randonly selected as training point or test point
Phenyltriethoxysilane,393.15,1,C1(=CC=CC=C1)[Si](OCC)(OCC)OCC,chen14,1,1,0,0,randonly selected as training point or test point
Diphenylsilane,371.15,1,C1(=CC=CC=C1)[SiH2]C1=CC=CC=C1,chen14,1,1,0,0,randonly selected as training point or test point
"2,4,6,8-Tetravinyl-2,4,6,8-tetramethylcyclotetrasiloxane",385.15,1,C(=C)[Si]1(O[Si](O[Si](O[Si](O1)(C)C=C)(C)C=C)(C)C=C)C,chen14,1,1,0,0,randonly selected as training point or test point
n-Dodecyltrichlorosilane,435.15,1,C(CCCCCCCCCCC)[Si](Cl)(Cl)Cl,chen14,1,1,0,0,randonly selected as training point or test point
Tetra-n-propoxysilane,368.15,1,C(CC)O[Si](OCCC)(OCCC)OCCC,chen14,1,1,0,0,randonly selected as training point or test point
Hexaethyldisiloxane,349.15,1,C(C)[Si](O[Si](CC)(CC)CC)(CC)CC,chen14,1,1,0,0,randonly selected as training point or test point
Dodecamethylpentasiloxane,352.15,1,C[Si](O[Si](O[Si](O[Si](O[Si](C)(C)C)(C)C)(C)C)(C)C)(C)C,chen14,1,1,0,0,randonly selected as training point or test point
Dodecamethylcyclohexasiloxane,366.15,1,C[Si]1(O[Si](O[Si](O[Si](O[Si](O[Si](O1)(C)C)(C)C)(C)C)(C)C)(C)C)C,chen14,1,1,0,0,randonly selected as training point or test point
Methyldiphenylchlorosilane,411.15,1,C[Si](Cl)(C1=CC=CC=C1)C1=CC=CC=C1,chen14,1,1,0,0,randonly selected as training point or test point
n-Dodecylmethyldichlorosilane,416.15,1,C(CCCCCCCCCCC)[Si](Cl)(Cl)C,chen14,1,1,0,0,randonly selected as training point or test point
Diphenyldimethoxysilane,394.15,1,C1(=CC=CC=C1)[Si](OC)(OC)C1=CC=CC=C1,chen14,1,1,0,0,randonly selected as training point or test point
Octyltriethoxysilane,373.15,1,C(CCCCCCC)[Si](OCC)(OCC)OCC,chen14,1,1,0,0,randonly selected as training point or test point
Tetradecamethylhexasiloxane,375.15,1,C[Si](O[Si](O[Si](O[Si](O[Si](O[Si](C)(C)C)(C)C)(C)C)(C)C)(C)C)(C)C,chen14,1,1,0,0,randonly selected as training point or test point
Hexadecamethylheptasiloxane,406.15,1,C[Si](O[Si](O[Si](O[Si](O[Si](O[Si](O[Si](C)(C)C)(C)C)(C)C)(C)C)(C)C)(C)C)(C)C,chen14,1,1,0,0,randonly selected as training point or test point
n-Octadecyltrichlorosilane,466.15,1,C(CCCCCCCCCCCCCCCCC)[Si](Cl)(Cl)Cl,chen14,1,1,0,0,randonly selected as training point or test point
Octadecamethyloctasiloxane,417.15,1,C[Si](O[Si](O[Si](O[Si](O[Si](O[Si](O[Si](O[Si](C)(C)C)(C)C)(C)C)(C)C)(C)C)(C)C)(C)C)(C)C,chen14,1,1,0,0,randonly selected as training point or test point
Vinyltris(methoxyethoxy)silane,353.15,1,C(=C)[Si](OCCOC)(OCCOC)OCCOC,chen14,1,1,0,0,randonly selected as training point or test point
Trimethyl(vinyloxy)silane,263.15,1,C[Si](OC=C)(C)C,chen14,1,1,0,0,randonly selected as training point or test point
Trichloro(3-cyanopropyl) Silane,365.15,1,Cl[Si](CCCC#N)(Cl)Cl,chen14,1,1,0,0,randonly selected as training point or test point
Trichloro(2-phenylethyl)silane,364.15,1,Cl[Si](CCC1=CC=CC=C1)(Cl)Cl,chen14,1,1,0,0,randonly selected as training point or test point
"Chlorodimethyl(3,3,3-trifluoropropyl) silane",293.15,1,Cl[Si](CCC(F)(F)F)(C)C,chen14,1,1,0,0,randonly selected as training point or test point
Vinylmethylbis (trimethylsiloxy) silane,324.15,1,C(=C)C[SiH](O[Si](C)(C)C)O[Si](C)(C)C,chen14,1,1,0,0,randonly selected as training point or test point
Trichloro(Chloromethyl) silane,342.15,1,Cl[Si](CCl)(Cl)Cl,chen14,1,1,0,0,randonly selected as training point or test point
Dimethyl(pentafluorophenyl) silane,313.15,1,C[SiH](C1=C(C(=C(C(=C1F)F)F)F)F)C,chen14,1,1,0,0,randonly selected as training point or test point
Trichloro(p-chlorophenyl)silane,397.05,1,Cl[Si](C1=CC=C(C=C1)Cl)(Cl)Cl,chen14,1,1,0,0,randonly selected as training point or test point
Trisilane,273.15,1,[SiH3][SiH2][SiH3],chen14,1,1,0,0,randonly selected as training point or test point
Trichlorononylsilane,387.15,1,ClC(CCCCCCCC[SiH3])(Cl)Cl,chen14,1,1,0,0,randonly selected as training point or test point
Dichloroethylsilane,263.75,1,ClC(C[SiH3])Cl,chen14,1,1,0,0,randonly selected as training point or test point
Trichloro(dichlorophenyl)silane,419.15,1,Cl[Si](C1=C(C(=CC=C1)Cl)Cl)(Cl)Cl,chen14,1,1,0,0,randonly selected as training point or test point
Tris(trimethylsilyl)silane,328.15,1,C[Si](C)(C)[SiH]([Si](C)(C)C)[Si](C)(C)C,chen14,1,1,0,0,randonly selected as training point or test point
Tris(trimethylsiloxy)silane,323.15,1,C[Si](O[SiH](O[Si](C)(C)C)O[Si](C)(C)C)(C)C,chen14,1,1,0,0,randonly selected as training point or test point
Hexadecyltrichlorosilane,427.15,1,C(CCCCCCCCCCCCCCC)[Si](Cl)(Cl)Cl,chen14,1,1,0,0,randonly selected as training point or test point
Dichlorosilane,236.15,1,Cl[SiH2]Cl,chen14,1,1,0,0,randonly selected as training point or test point
Dimethyldichlorosilane,257.15,1,C[Si](Cl)(Cl)C,chen14,1,1,0,0,randonly selected as training point or test point
Bromomethyldimethylchlorosilane,314.15,1,BrC[Si](Cl)(C)C,chen14,1,1,0,0,randonly selected as training point or test point
Trimethylsilane,204.15,1,C[SiH](C)C,chen14,1,1,0,0,randonly selected as training point or test point
Dimethylvinylchlorosilane,268.15,1,CC(=C[SiH2]Cl)C,chen14,1,1,0,0,randonly selected as training point or test point
"1,3-Dichlorotetramethyldisiloxane",288.15,1,Cl[Si](O[Si](Cl)(C)C)(C)C,chen14,1,1,0,0,randonly selected as training point or test point
"1,1,3,3-Tetramethyldisiloxane",251.15,1,C[SiH](O[SiH](C)C)C,chen14,1,1,0,0,randonly selected as training point or test point
Tetramethyldisilazane,284.15,1,CN([Si](C)(C)C)[SiH3],chen14,1,1,0,0,randonly selected as training point or test point
Allyl Dimethylchlorosilane,278.15,1,C(C=C)[Si](Cl)(C)C,chen14,1,1,0,0,randonly selected as training point or test point
sec-Amyltrichlorosilane,303.15,1,C(C)(CCC)[Si](Cl)(Cl)Cl,chen14,1,1,0,0,randonly selected as training point or test point
n-Butylmethyldichlorosilane,303.15,1,C(CCC)[Si](Cl)(Cl)C,chen14,1,1,0,0,randonly selected as training point or test point
Bis(dimethylamino)methylsilane,270.15,1,CN(C)C(N(C)C)[SiH3],chen14,1,1,0,0,randonly selected as training point or test point
Phenyltrichlorosilane,364.15,1,C1(=CC=CC=C1)[Si](Cl)(Cl)Cl,chen14,1,1,0,0,randonly selected as training point or test point
Phenyl trifluorosilane,268.15,1,C1(=CC=CC=C1)[Si](F)(F)F,chen14,1,1,0,0,randonly selected as training point or test point
Dimethyldiacetoxysilane,310.15,1,C[Si](OC(C)=O)(OC(C)=O)C,chen14,1,1,0,0,randonly selected as training point or test point
1-Trimethylsilylpropyne,270.15,1,C[Si](C#CC)(C)C,chen14,1,1,0,0,randonly selected as training point or test point
Vinyldimethylethoxysilane,277.15,1,C(=C)[Si](OCC)(C)C,chen14,1,1,0,0,randonly selected as training point or test point
Allyloxytrimethylsilane,273.15,1,C(C=C)O[Si](C)(C)C,chen14,1,1,0,0,randonly selected as training point or test point
Allyltrimethoxysilane,319.15,1,C(C=C)[Si](OC)(OC)OC,chen14,1,1,0,0,randonly selected as training point or test point
3-Chloropropyltrimethoxysilane,348.15,1,ClCCC[Si](OC)(OC)OC,chen14,1,1,0,0,randonly selected as training point or test point
n-Propyltrimethoxysilane,298.15,1,C(CC)[Si](OC)(OC)OC,chen14,1,1,0,0,randonly selected as training point or test point
Hexamethyldisiloxane,270.15,1,C[Si](O[Si](C)(C)C)(C)C,chen14,1,1,0,0,randonly selected as training point or test point
Hexamethyldisilane,272.15,1,C[Si]([Si](C)(C)C)(C)C,chen14,1,1,0,0,randonly selected as training point or test point
Vinyldiethylmethylsilane,288.15,1,C(=C)[Si](C)(CC)CC,chen14,1,1,0,0,randonly selected as training point or test point
Isobutyltrimethoxysilane,315.15,1,C(C(C)C)[Si](OC)(OC)OC,chen14,1,1,0,0,randonly selected as training point or test point
Phenyldimethylchlorosilane,334.15,1,C1(=CC=CC=C1)[Si](Cl)(C)C,chen14,1,1,0,0,randonly selected as training point or test point
"(N,N-Dimethylamino)triethylsilane",299.15,1,CN(C)[Si](CC)(CC)CC,chen14,1,1,0,0,randonly selected as training point or test point
Vinyltriacetoxysilane,361.15,1,C(=C)[Si](OC(C)=O)(OC(C)=O)OC(C)=O,chen14,1,1,0,0,randonly selected as training point or test point
Ethyltriacetoxysilane,377.15,1,C(C)[Si](OC(C)=O)(OC(C)=O)OC(C)=O,chen14,1,1,0,0,randonly selected as training point or test point
3-(Trimethylsilyl)cyclopentene,299.15,1,C[Si](C1C=CCC1)(C)C,chen14,1,1,0,0,randonly selected as training point or test point
Vinyltriethylsilane,298.15,1,C(=C)[Si](CC)(CC)CC,chen14,1,1,0,0,randonly selected as training point or test point
n-Octylsilane,309.15,1,C(CCCCCCC)[SiH3],chen14,1,1,0,0,randonly selected as training point or test point
Methyl phenyldimethoxysilane,349.15,1,C[Si](OC)(OC)C1=CC=CC=C1,chen14,1,1,0,0,randonly selected as training point or test point
2-Cyanoethyltriethoxysilane,359.15,1,C(#N)CC[Si](OCC)(OCC)OCC,chen14,1,1,0,0,randonly selected as training point or test point
3-Glycidoxypropyltrimethoxysilane,383.15,1,C(C1CO1)OCCC[Si](OC)(OC)OC,chen14,1,1,0,0,randonly selected as training point or test point
Di-t-butylmethylchlorosilane,342.15,1,C(C)(C)(C)[Si](Cl)(C)C(C)(C)C,chen14,1,1,0,0,randonly selected as training point or test point
Tri-n-propylchlorosilane,349.15,1,C(CC)[Si](Cl)(CCC)CCC,chen14,1,1,0,0,randonly selected as training point or test point
(Diisopropylamino)trimethylsilane,301.15,1,C(C)(C)N(C(C)C)[Si](C)(C)C,chen14,1,1,0,0,randonly selected as training point or test point
1-Chlorononamethyltetrasiloxane,347.15,1,Cl[Si](O[Si](O[Si](O[Si](C)(C)C)(C)C)(C)C)(C)C,chen14,1,1,0,0,randonly selected as training point or test point
Tristrimethylsiloxymethylsilane,336.15,1,C[Si](OC(O[Si](C)(C)C)(O[Si](C)(C)C)[SiH3])(C)C,chen14,1,1,0,0,randonly selected as training point or test point
Diphenylmethylsilane,393.15,1,C1(=CC=CC=C1)C(C1=CC=CC=C1)[SiH3],chen14,1,1,0,0,randonly selected as training point or test point
Trimethyl[(1-methylethenyl)oxy]silane,272.15,1,C[Si](OC(=C)C)(C)C,chen14,1,1,0,0,randonly selected as training point or test point
"Dichloromethyl-3,3,3-trifluoropropylsilane",288.15,1,ClC(Cl)[SiH2]CCC(F)(F)F,chen14,1,1,0,0,randonly selected as training point or test point
[2-(chloromethoxy)ethyl]trimethylsilane,319.15,1,ClCOCC[Si](C)(C)C,chen14,1,1,0,0,randonly selected as training point or test point
Iodotrimethylsilane,288.15,1,I[Si](C)(C)C,chen14,1,1,0,0,randonly selected as training point or test point
Triphenylsilane,416.35,1,C1(=CC=CC=C1)[SiH](C1=CC=CC=C1)C1=CC=CC=C1,chen14,1,1,0,0,randonly selected as training point or test point
[3-(mercapto)propyl]triethoxysilane,360.93,1,SCCC[Si](OCC)(OCC)OCC,chen14,1,1,0,0,randonly selected as training point or test point
Gamma-aminopropylethoxysilane,369.26,1,NCCC[SiH2]OCC,chen14,1,1,0,0,randonly selected as training point or test point
Dichlorodiethylsilane,297.15,1,Cl[Si](CC)(CC)Cl,chen14,1,1,0,0,randonly selected as training point or test point
ALLYLTRICHLOROGERMANE,328.15,1,C=CC[Ge](Cl)(Cl)Cl,gelest_germanium,0,1,0,0,randonly selected as training point or test point
ALLYLTRIETHYLGERMANE,321.15,1,C=CC[Ge](CC)(CC)CC,gelest_germanium,0,1,0,0,randonly selected as training point or test point
ALLYLTRIMETHYLGERMANE,274.15,1,C=CC[Ge](C)(C)C,gelest_germanium,0,1,0,0,randonly selected as training point or test point
BIS(CHLOROMETHYL)DIMETHYLGERMANE,324.15,1,C[Ge](C)(CCl)CCl,gelest_germanium,0,1,0,0,randonly selected as training point or test point
t-BUTYLDIMETHYLCHLOROGERMANE,307.15,1,CC(C)(C)[Ge](C)(C)Cl,gelest_germanium,0,1,0,0,randonly selected as training point or test point
n-BUTYLTRICHLOROGERMANE,355.15,1,CCCC[Ge](Cl)(Cl)Cl,gelest_germanium,0,1,0,0,randonly selected as training point or test point
DI-n-BUTYLDICHLOROGERMANE,380.15,1,CCCC[Ge](Cl)(Cl)CCCC,gelest_germanium,0,1,0,0,randonly selected as training point or test point
DICHLOROMETHYLTRIMETHYLGERMANE,306.15,1,C[Ge](C)(C)C(Cl)Cl,gelest_germanium,0,1,0,0,randonly selected as training point or test point
DIETHYLDICHLOROGERMANE,325.15,1,CC[Ge](Cl)(Cl)CC,gelest_germanium,0,1,0,0,randonly selected as training point or test point
DIMETHYLAMINOTRIMETHYLGERMANE,263.15,1,CN(C)[Ge](C)(C)C,gelest_germanium,0,1,0,0,randonly selected as training point or test point
DIPHENYLDICHLOROGERMANE,433.15,1,Cl[Ge](Cl)(c1ccccc1)c1ccccc1,gelest_germanium,0,1,0,0,randonly selected as training point or test point
DIPHENYLGERMANE,377.15,1,c1ccc([GeH2]c2ccccc2)cc1,gelest_germanium,0,1,0,0,randonly selected as training point or test point
ETHYLTRICHLOROGERMANE,324.15,1,CC[Ge](Cl)(Cl)Cl,gelest_germanium,0,1,0,0,randonly selected as training point or test point
HEXAMETHYLDIGERMANE,287.15,1,C[Ge](C)(C)[Ge](C)(C)C,gelest_germanium,0,1,0,0,randonly selected as training point or test point
METHACRYLOXYMETHYLTRIMETHYLGERMANE,336.15,1,C=C(C)C(=O)OC[Ge](C)(C)C,gelest_germanium,0,1,0,0,randonly selected as training point or test point
METHYLTRICHLOROGERMANE,283.15,1,C[Ge](Cl)(Cl)Cl,gelest_germanium,0,1,0,0,randonly selected as training point or test point
METHYLTRIETHOXYGERMANE,313.15,1,CCO[Ge](C)(OCC)OCC,gelest_germanium,0,1,0,0,randonly selected as training point or test point
TETRAALLYLGERMANE,343.15,1,C=CC[Ge](CC=C)(CC=C)CC=C,gelest_germanium,0,1,0,0,randonly selected as training point or test point
TETRA-n-BUTOXYGERMANE,385.15,1,CCCCO[Ge](OCCCC)(OCCCC)OCCCC,gelest_germanium,0,1,0,0,randonly selected as training point or test point
TETRA-n-BUTYLGERMANE,363.15,1,CCCC[Ge](CCCC)(CCCC)CCCC,gelest_germanium,0,1,0,0,randonly selected as training point or test point
TETRAETHOXYGERMANE,335.15,1,CCO[Ge](OCC)(OCC)OCC,gelest_germanium,0,1,0,0,randonly selected as training point or test point
TETRAETHYLGERMANE,315.15,1,CC[Ge](CC)(CC)CC,gelest_germanium,0,1,0,0,randonly selected as training point or test point
TETRAKIS(DIMETHYLAMINO)GERMANE,307.15,1,CN(C)[Ge](N(C)C)(N(C)C)N(C)C,gelest_germanium,0,1,0,0,randonly selected as training point or test point
TETRAISOPROPOXYGERMANE,341.15,1,CC(C)O[Ge](OC(C)C)(OC(C)C)OC(C)C,gelest_germanium,0,1,0,0,randonly selected as training point or test point
TETRAMETHOXYGERMANE,307.15,1,CO[Ge](OC)(OC)OC,gelest_germanium,0,1,0,0,randonly selected as training point or test point
TETRAMETHYLGERMANE,254.15,1,C[Ge](C)(C)C,gelest_germanium,0,1,0,0,randonly selected as training point or test point
TRI-n-BUTYLCHLOROGERMANE,367.15,1,CCCC[Ge](Cl)(CCCC)CCCC,gelest_germanium,0,1,0,0,randonly selected as training point or test point
TRI-n-BUTYLGERMANE,351.15,1,CCCC[GeH](CCCC)CCCC,gelest_germanium,0,1,0,0,randonly selected as training point or test point
TRICHLOROGERMANE,285.15,1,Cl[GeH](Cl)Cl,gelest_germanium,0,1,0,0,randonly selected as training point or test point
TRIETHYLCHLOROGERMANE,311.15,1,CC[Ge](Cl)(CC)CC,gelest_germanium,0,1,0,0,randonly selected as training point or test point
TRIETHYLGERMANE,278.15,1,CC[GeH](CC)CC,gelest_germanium,0,1,0,0,randonly selected as training point or test point
TRIISOPROPYLCHLOROGERMANE,339.15,1,CC(C)[Ge](Cl)(C(C)C)C(C)C,gelest_germanium,0,1,0,0,randonly selected as training point or test point
TRIMETHYLBROMOGERMANE,310.15,1,C[Ge](C)(C)Br,gelest_germanium,0,1,0,0,randonly selected as training point or test point
TRIMETHYLCHLOROGERMANE,274.15,1,C[Ge](C)(C)Cl,gelest_germanium,0,1,0,0,randonly selected as training point or test point
VINYLTRIETHYLGERMANE,305.15,1,C=C[Ge](CC)(CC)CC,gelest_germanium,0,1,0,0,randonly selected as training point or test point
ALUMINUM DIISOPROPOXIDE ETHYLACETOACETATE,323.15,1,CC(C)[O-].CC(C)[O-].CCOC(=O)CC(C)=O.[Al+2],gelest_metal-organics,0,1,0,0,randonly selected as training point or test point
ANTIMONY(III) n-BUTOXIDE,341.15,1,CCCC[O-].CCCC[O-].CCCC[O-].[Sb+3],gelest_metal-organics,0,1,0,0,randonly selected as training point or test point
ARSENIC TRIETHOXIDE,322.15,1,CC[O-].CC[O-].CC[O-].[As+3],gelest_metal-organics,0,1,0,0,randonly selected as training point or test point
BORON ALLYLOXIDE,304.15,1,C=CCOCC=C.[B],gelest_metal-organics,0,1,0,0,randonly selected as training point or test point
BORON n-BUTOXIDE,366.15,1,CCCC[O-].CCCC[O-].CCCC[O-].[B+3],gelest_metal-organics,0,1,0,0,randonly selected as training point or test point
BORON ETHOXIDE,284.15,1,CC[O-].CC[O-].CC[O-].[B+3],gelest_metal-organics,0,1,0,0,randonly selected as training point or test point
BORON ISOPROPOXIDE,301.15,1,CC(C)[O-].CC(C)[O-].CC(C)[O-].[B+3],gelest_metal-organics,0,1,0,0,randonly selected as training point or test point
BORON METHOXIDE,272.15,1,C[O-].C[O-].C[O-].[B+3],gelest_metal-organics,0,1,0,0,randonly selected as training point or test point
BORON METHOXYETHOXIDE,386.15,1,COC(C)[O-].COC(C)[O-].COC(C)[O-].[B+3],gelest_metal-organics,0,1,0,0,randonly selected as training point or test point
NICKEL DI-n-BUTYLDITHIOCARBAMATE,533.15,1,CCCCN(CCCC)C(=S)[S-].CCCCN(CCCC)C(=S)[S-].[Ni+2],gelest_metal-organics,0,1,0,0,randonly selected as training point or test point
NIOBIUM(V) n-BUTOXIDE,363.15,1,CCCC[O-].CCCC[O-].CCCC[O-].CCCC[O-].CCCC[O-].[Nb+5],gelest_metal-organics,0,1,0,0,randonly selected as training point or test point