compound,flashpoint,pure substance,smiles,source,is_silicon,is_metallic,is_tin,is_acid,data type
Propyl sulfide (8CI),301.45,1,CCCSCCC,le15,0,0,0,0,randonly selected as training point or test point
2-propan-2-ylsulfanylpropane,280.15,1,CC(C)SC(C)C,le15,0,0,0,0,randonly selected as training point or test point
1-propan-2-ylsulfanylpropane,296.15,1,CCCSC(C)C,le15,0,0,0,0,randonly selected as training point or test point
1-methylsulfanylpentane,312.85,1,CCCCCSC,le15,0,0,0,0,randonly selected as training point or test point
ethoxy(trimethyl)silane,255.15,1,CCO[Si](C)(C)C,le15,1,1,0,0,randonly selected as training point or test point
3-methylbut-2-enoyl chloride,324.15,1,CC(C)=CC(=O)Cl,le15,0,0,0,0,randonly selected as training point or test point
2-chlorothiophene,295.15,1,Clc1cccs1,le15,0,0,0,0,randonly selected as training point or test point
"Cyclohexane, chloro-",301.15,1,ClC1CCCCC1,le15,0,0,0,0,randonly selected as training point or test point
"1-Propyne, 3-bromo-",290.25,1,C#CCBr,le15,0,0,0,0,randonly selected as training point or test point
"Propanoic acid, 3-nitro- (9CI)",421.55,1,O=C(O)CC[N+](=O)[O-],le15,0,0,0,1,randonly selected as training point or test point
"Acetic acid, nitro-, methyl ester",378.15,1,COC(=O)C[N+](=O)[O-],le15,0,0,0,1,randonly selected as training point or test point
"2,1-benzoxazole",367.05,1,c1ccc2nocc2c1,le15,0,0,0,0,randonly selected as training point or test point
"1,3-benzoxazole",338.45,1,c1ccc2ocnc2c1,le15,0,0,0,0,randonly selected as training point or test point
"Benzonitrile, 4-hydroxy-",397.05,1,N#Cc1ccc(O)cc1,le15,0,0,0,0,randonly selected as training point or test point
"Benzonitrile, 3-hydroxy-",380.75,1,N#Cc1cccc(O)c1,le15,0,0,0,0,randonly selected as training point or test point
(E)-3-(furan-2-yl)prop-2-enenitrile,360.35,1,N#C/C=C/c1ccco1,le15,0,0,0,0,randonly selected as training point or test point
1H-Benzotriazole,407.05,1,c1ccc2[nH]nnc2c1,le15,0,0,0,0,randonly selected as training point or test point
2-methylpropyl nitrate,314.05,1,CC(C)CO[N+](=O)[O-],le15,0,0,0,0,randonly selected as training point or test point
butan-2-yl nitrate,314.05,1,CCC(C)O[N+](=O)[O-],le15,0,0,0,0,randonly selected as training point or test point
"Ethanol, 2-methoxy-, carbamate",404.15,1,COCCOC(N)=O,le15,0,0,0,0,randonly selected as training point or test point
"Hydrazinecarbothioamide, 1-formyl- (9CI)",364.65,1,NC(=S)N(N)C=O,le15,0,0,0,0,randonly selected as training point or test point
"Pyridine, 5-ethenyl-2-methyl-",329.75,1,C=Cc1ccc(C)nc1,le15,0,0,0,0,randonly selected as training point or test point
"2,3-dihydro-1H-indole",365.95,1,c1ccc2c(c1)CCN2,le15,0,0,0,0,randonly selected as training point or test point
N-methyl-1-phenylmethanimine,386.15,1,CN=Cc1ccccc1,le15,0,0,0,0,randonly selected as training point or test point
"Benzenamine, 4-ethenyl-",381.75,1,C=Cc1ccc(N)cc1,le15,0,0,0,0,randonly selected as training point or test point
"Ethanol, 2,2'-(methylimino)bis-",399.85,1,CN(CCO)CCO,le15,0,0,0,0,randonly selected as training point or test point
"2,2-dimethoxy-N-methylethanamine",302.55,1,CNCC(OC)OC,le15,0,0,0,0,randonly selected as training point or test point
MethylDiethanolAmine,411.0,1,CN(CCO)CCO,le15,0,0,0,0,randonly selected as training point or test point
2-Thiazolidinethione,341.25,1,S=C1NCCS1,le15,0,0,0,0,randonly selected as training point or test point
"Acetonitrile, bromo-",297.45,1,N#CCBr,le15,0,0,0,0,randonly selected as training point or test point
trimethylarsane,373.15,1,C[As](C)C,le15,0,1,0,0,randonly selected as training point or test point
"1,1-dinitroethane",352.15,1,CC([N+](=O)[O-])[N+](=O)[O-],le15,0,0,0,0,randonly selected as training point or test point
"Urea, 1,3-bis(hydroxymethyl)- (8CI)",505.45,1,O=C(NCO)NCO,le15,0,0,0,0,randonly selected as training point or test point
"Benzene, (epoxyethyl)-",352.55,1,c1ccc(C2CO2)cc1,le15,0,0,0,0,randonly selected as training point or test point
"Acetaldehyde, phenyl- (8CI)",362.35,1,O=CCc1ccccc1,le15,0,0,0,0,randonly selected as training point or test point
"Isobenzofuran, 1,3-dihydro-",336.15,1,c1ccc2c(c1)COC2,le15,0,0,0,0,randonly selected as training point or test point
"Benzofuran, 2,3-dihydro-",339.15,1,c1ccc2c(c1)CCO2,le15,0,0,0,0,randonly selected as training point or test point
o-Tolualdehyde (8CI),352.65,1,Cc1ccccc1C=O,le15,0,0,0,0,randonly selected as training point or test point
"Benzaldehyde, 3-methyl-",351.15,1,Cc1cccc(C=O)c1,le15,0,0,0,0,randonly selected as training point or test point
4-ethenylphenol,365.45,1,C=Cc1ccc(O)cc1,le15,0,0,0,0,randonly selected as training point or test point
"Ethanone, 1-phenyl-",354.05,1,CC(=O)c1ccccc1,le15,0,0,0,0,randonly selected as training point or test point
"2-(hydroxymethyl)-2-methylpropane-1,3-diol",418.65,1,CC(CO)(CO)CO,le15,0,0,0,0,randonly selected as training point or test point
"Ethanol, 2-(2-methoxyethoxy)-",357.05,1,COCCOCCO,le15,0,0,0,0,randonly selected as training point or test point
"1,3-dimethoxypropan-2-ol",331.35,1,COCC(O)COC,le15,0,0,0,0,randonly selected as training point or test point
"1,1,1-trimethoxyethane",289.15,1,COC(C)(OC)OC,le15,0,0,0,0,randonly selected as training point or test point
"3-ethoxypropane-1,2-diol",372.65,1,CCOCC(O)CO,le15,0,0,0,0,randonly selected as training point or test point
"Thiophene, tetrahydro-, 1,1-dioxide",443.828,1,O=S1(=O)CCCC1,le15,0,0,0,0,randonly selected as training point or test point
"Acetic acid, mercapto-, ethyl ester",320.95,1,CCOC(=O)CS,le15,0,0,0,1,randonly selected as training point or test point
(Ethylsulphonyl)ethylene,382.15,1,C=CS(=O)(=O)CC,le15,0,0,0,0,randonly selected as training point or test point
methyl 3-sulfanylpropanoate,333.15,1,COC(=O)CCS,le15,0,0,0,0,randonly selected as training point or test point
"Benzene, (1-methylethyl)-",304.15,1,CC(C)c1ccccc1,le15,0,0,0,0,randonly selected as training point or test point
1-ethyl-2-methylbenzene,312.55,1,CCc1ccccc1C,le15,0,0,0,0,randonly selected as training point or test point
"Bicyclo(2.2.1)hept-2-ene, 5-ethenyl-",299.35,1,C=CC1CC2C=CC1C2,le15,0,0,0,0,randonly selected as training point or test point
"Bicyclo(2.2.1)hept-2-ene, 5-ethylidene-",311.45,1,CC=C1CC2C=CC1C2,le15,0,0,0,0,randonly selected as training point or test point
"1H-Indene, 3a,4,7,7a-tetrahydro-",306.95,1,C1=CCC2CC=CC2C1,le15,0,0,0,0,randonly selected as training point or test point
5ethylidene2norbornene,311.0,1,CC=C1CC2C=CC1C2,le15,0,0,0,0,randonly selected as training point or test point
mEthyltoluene,311.0,1,CCc1ccccc1,le15,0,0,0,0,randonly selected as training point or test point
Ethanedithioamide,379.35,1,NC(=S)C(N)=S,le15,0,0,0,0,randonly selected as training point or test point
"1,3-Dithiane",363.15,1,C1CSCSC1,le15,0,0,0,0,randonly selected as training point or test point
"1,4-Dithiane",355.25,1,C1CSCCS1,le15,0,0,0,0,randonly selected as training point or test point
"Carbonochloridic acid, 2-propenyl ester",361.15,1,C=CCOC(=O)Cl,le15,0,0,0,1,randonly selected as training point or test point
prop-1-en-2-yl carbonochloridate,289.25,1,C=C(C)OC(=O)Cl,le15,0,0,0,0,randonly selected as training point or test point
Pentanoyl chloride,305.95,1,CCCCC(=O)Cl,le15,0,0,0,0,randonly selected as training point or test point
"Oxetane, 3-(chloromethyl)-3-methyl-",316.05,1,CC1(CCl)COC1,le15,0,0,0,0,randonly selected as training point or test point
2-methylbutanoyl chloride,298.65,1,CCC(C)C(=O)Cl,le15,0,0,0,0,randonly selected as training point or test point
3-methylbutanoyl chloride,298.65,1,CC(C)CC(=O)Cl,le15,0,0,0,0,randonly selected as training point or test point
"2,2-dimethylpropanoyl chloride",282.05,1,CC(C)(C)C(=O)Cl,le15,0,0,0,0,randonly selected as training point or test point
1-chlorohexane,299.15,1,CCCCCCCl,le15,0,0,0,0,randonly selected as training point or test point
3-chloro-3-methylpentane,282.55,1,CCC(C)(Cl)CC,le15,0,0,0,0,randonly selected as training point or test point
3-chlorohexane,298.15,1,CCCC(Cl)CC,le15,0,0,0,0,randonly selected as training point or test point
"1-chloro-3,3-dimethylbutane",292.15,1,CC(C)(C)CCCl,le15,0,0,0,0,randonly selected as training point or test point
3-(chloromethyl)pentane,298.15,1,CCC(CC)CCl,le15,0,0,0,0,randonly selected as training point or test point
[(E)-2-chloroethenyl]-dimethylsilicon,269.15,1,C[Si](C)/C=C/Cl,le15,1,1,0,0,randonly selected as training point or test point
"Methane, dichlorodifluoro-",284.15,1,FC(F)(Cl)Cl,le15,0,0,0,0,randonly selected as training point or test point
2-bromoprop-1-ene,327.15,1,C=C(C)Br,le15,0,0,0,0,randonly selected as training point or test point
"1-Propene, 3-bromo-",272.15,1,C=CCBr,le15,0,0,0,0,randonly selected as training point or test point
"Peroxide, acetyl nitro",357.85,1,CC(=O)OO[N+](=O)[O-],le15,0,0,0,0,randonly selected as training point or test point
4-fluorobenzonitrile,338.75,1,N#Cc1ccc(F)cc1,le15,0,0,0,0,randonly selected as training point or test point
3-fluorobenzonitrile,340.15,1,N#Cc1cccc(F)c1,le15,0,0,0,0,randonly selected as training point or test point
"Ethanone, 1-(3-pyridinyl)-",377.15,1,CC(=O)c1cccnc1,le15,0,0,0,0,randonly selected as training point or test point
"Benzaldehyde, p-amino- (8CI)",395.141,1,Nc1ccc(C=O)cc1,le15,0,0,0,0,randonly selected as training point or test point
"Benzene, 1-methyl-2-nitroso- (9CI)",347.85,1,Cc1ccccc1N=O,le15,0,0,0,0,randonly selected as training point or test point
"Benzaldehyde, oxime, (Z)-",382.05,1,O/N=C\c1ccccc1,le15,0,0,0,0,randonly selected as training point or test point
"Ethanone, 1-(4-pyridinyl)-",360.15,1,CC(=O)c1ccncc1,le15,0,0,0,0,randonly selected as training point or test point
"Ethanone, 1-(2-pyridinyl)-",346.45,1,CC(=O)c1ccccn1,le15,0,0,0,0,randonly selected as training point or test point
"Formamide, N-phenyl-",423.35,1,O=CNc1ccccc1,le15,0,0,0,0,randonly selected as training point or test point
L-Cysteine,404.65,1,N[C@@H](CS)C(=O)O,le15,0,0,0,0,randonly selected as training point or test point
2-phenylethanamine,363.75,1,NCCc1ccccc1,le15,0,0,0,0,randonly selected as training point or test point
"Benzenamine, 2,3-dimethyl-",369.15,1,Cc1cccc(N)c1C,le15,0,0,0,0,randonly selected as training point or test point
"Benzenamine, 2,6-dimethyl-",364.15,1,Cc1cccc(C)c1N,le15,0,0,0,0,randonly selected as training point or test point
"Benzenemethanamine, 2-methyl-",357.05,1,Cc1ccccc1CN,le15,0,0,0,0,randonly selected as training point or test point
"Benzenamine, 2,4-dimethyl-",363.75,1,Cc1ccc(N)c(C)c1,le15,0,0,0,0,randonly selected as training point or test point
"Benzenamine, 2,5-dimethyl-",367.05,1,Cc1ccc(C)c(N)c1,le15,0,0,0,0,randonly selected as training point or test point
(3-methylphenyl)methanamine,353.75,1,Cc1cccc(CN)c1,le15,0,0,0,0,randonly selected as training point or test point
"Benzenamine, N-ethyl-",358.15,1,CCNc1ccccc1,le15,0,0,0,0,randonly selected as training point or test point
"Benzylamine, p-methyl- (8CI)",348.15,1,Cc1ccc(CN)cc1,le15,0,0,0,0,randonly selected as training point or test point
"Benzenamine, 3,5-dimethyl-",366.45,1,Cc1cc(C)cc(N)c1,le15,0,0,0,0,randonly selected as training point or test point
3-ethyl-4-methylpyridine,343.251,1,CCc1cnccc1C,le15,0,0,0,0,randonly selected as training point or test point
4-ethyl-2-methylpyridine,330.15,1,CCc1ccnc(C)c1,le15,0,0,0,0,randonly selected as training point or test point
"Aniline, o-ethyl- (8CI)",358.15,1,CCc1ccccc1N,le15,0,0,0,0,randonly selected as training point or test point
"o-Toluidine, N-methyl- (8CI)",349.55,1,CNc1ccccc1C,le15,0,0,0,0,randonly selected as training point or test point
"Benzenemethanamine, alpha-methyl-",348.95300000000015,1,CC(N)c1ccccc1,le15,0,0,0,0,randonly selected as training point or test point
"m-Toluidine, N-methyl- (8CI)",350.45,1,CNc1cccc(C)c1,le15,0,0,0,0,randonly selected as training point or test point
"2,4,5-trimethylpyridine",331.05,1,Cc1cc(C)c(C)cn1,le15,0,0,0,0,randonly selected as training point or test point
2-ethyl-6-methylpyridine,316.55,1,CCc1cccc(C)n1,le15,0,0,0,0,randonly selected as training point or test point
4-propylpyridine,337.66,1,CCCc1ccncc1,le15,0,0,0,0,randonly selected as training point or test point
"2,3,6-trimethylpyridine",320.75,1,Cc1ccc(C)c(C)n1,le15,0,0,0,0,randonly selected as training point or test point
"2,3,4-trimethylpyridine",335.05,1,Cc1ccnc(C)c1C,le15,0,0,0,0,randonly selected as training point or test point
"Benzenamine, 3,4-dimethyl-",371.45,1,Cc1ccc(N)cc1C,le15,0,0,0,0,randonly selected as training point or test point
N-methyl-1-phenylmethanamine,350.95,1,CNCc1ccccc1,le15,0,0,0,0,randonly selected as training point or test point
"Pyridine, 5-ethyl-2-methyl-",339.25,1,CCc1ccc(C)nc1,le15,0,0,0,0,randonly selected as training point or test point
"Benzenamine, 3-ethyl- (9CI)",358.15,1,CCc1cccc(N)c1,le15,0,0,0,0,randonly selected as training point or test point
"Aniline, p-ethyl- (8CI)",358.15,1,CCc1ccc(N)cc1,le15,0,0,0,0,randonly selected as training point or test point
"N,4-dimethylaniline",345.25,1,CNc1ccc(C)cc1,le15,0,0,0,0,randonly selected as training point or test point
2-propan-2-ylpyridine,296.35,1,CC(C)c1ccccn1,le15,0,0,0,0,randonly selected as training point or test point
"2,3,5-trimethylpyridine",315.95,1,Cc1cnc(C)c(C)c1,le15,0,0,0,0,randonly selected as training point or test point
"Benzaldehyde, 2-hydroxy-",349.85,1,O=Cc1ccccc1O,le15,0,0,0,0,randonly selected as training point or test point
"Benzaldehyde, 4-hydroxy-",374.45,1,O=Cc1ccc(O)cc1,le15,0,0,0,0,randonly selected as training point or test point
"Benzene, 1,2-methylenedioxy-",328.15,1,c1ccc2c(c1)OCO2,le15,0,0,0,0,randonly selected as training point or test point
"2,5-Cyclohexadiene-1,4-dione, 2-methyl-",338.05,1,CC1=CC(=O)C=CC1=O,le15,0,0,0,0,randonly selected as training point or test point
"Benzaldehyde, 3-hydroxy-",371.75,1,O=Cc1cccc(O)c1,le15,0,0,0,0,randonly selected as training point or test point
"2-Propenal, 3-(2-furanyl)-",361.95,1,O=CC=Cc1ccco1,le15,0,0,0,0,randonly selected as training point or test point
3-Pyridinecarboxamide,429.15,1,NC(=O)c1cccnc1,le15,0,0,0,0,randonly selected as training point or test point
"1,2,3,4-Butanetetrol, (2R,3S)-rel-",481.95,1,OC[C@H](O)[C@H](O)CO,le15,0,0,0,0,randonly selected as training point or test point
"4-Pyridinecarboxaldehyde, oxime",345.25,1,ON=Cc1ccncc1,le15,0,0,0,0,randonly selected as training point or test point
"2-Pyridinecarboxaldehyde, oxime",346.65,1,ON=Cc1ccccn1,le15,0,0,0,0,randonly selected as training point or test point
4-Pyridinecarboxamide,429.15,1,NC(=O)c1ccncc1,le15,0,0,0,0,randonly selected as training point or test point
"1,2-Oxathiolane, 2,2-dioxide",406.931,1,O=S1(=O)CCCO1,le15,0,0,0,0,randonly selected as training point or test point
Phenethyl alcohol,371.55,1,OCCc1ccccc1,le15,0,0,0,0,randonly selected as training point or test point
"Benzyl alcohol, o-methyl- (8CI)",377.55,1,Cc1ccccc1CO,le15,0,0,0,0,randonly selected as training point or test point
"Phenol, 2-ethyl-",351.45,1,CCc1ccccc1O,le15,0,0,0,0,randonly selected as training point or test point
"Phenol, 3,4-dimethyl-",367.15,1,Cc1ccc(O)cc1C,le15,0,0,0,0,randonly selected as training point or test point
1-methoxy-3-methylbenzene,327.15,1,COc1cccc(C)c1,le15,0,0,0,0,randonly selected as training point or test point
"Benzene, 1-methoxy-4-methyl-",326.45,1,COc1ccc(C)cc1,le15,0,0,0,0,randonly selected as training point or test point
"Ether, benzyl methyl (8CI)",326.15,1,COCc1ccccc1,le15,0,0,0,0,randonly selected as training point or test point
"Phenol, 2,6-dimethyl-",351.45,1,Cc1cccc(C)c1O,le15,0,0,0,0,randonly selected as training point or test point
1-methoxy-2-methylbenzene,324.15,1,COc1ccccc1C,le15,0,0,0,0,randonly selected as training point or test point
"Benzenemethanol, 3-methyl-",378.75,1,Cc1cccc(CO)c1,le15,0,0,0,0,randonly selected as training point or test point
4-Methyl-benzenemethanol (9CI),378.15,1,Cc1ccc(CO)cc1,le15,0,0,0,0,randonly selected as training point or test point
"Phenol, m-ethyl- (8CI)",367.15,1,CCc1cccc(O)c1,le15,0,0,0,0,randonly selected as training point or test point
1-phenylethanol,358.15,1,CC(O)c1ccccc1,le15,0,0,0,0,randonly selected as training point or test point
"Ether, 1,3,5-cycloheptatrien-1-yl methyl (7CI,8CI)",345.65,1,COC1=CC=CC=CC1,le15,0,0,0,0,randonly selected as training point or test point
"Benzene, ethoxy-",328.15,1,CCOc1ccccc1,le15,0,0,0,0,randonly selected as training point or test point
"Phenol, 3,5-dimethyl-",365.45,1,Cc1cc(C)cc(O)c1,le15,0,0,0,0,randonly selected as training point or test point
"1,4-Benzenediamine, 2-methyl-",413.75,1,Cc1cc(N)ccc1N,le15,0,0,0,0,randonly selected as training point or test point
"1,3-Benzenediamine, 4-methyl-",422.65,1,Cc1ccc(N)cc1N,le15,0,0,0,0,randonly selected as training point or test point
"1,2-Benzenediamine, 4-methyl-",405.25,1,Cc1ccc(N)c(N)c1,le15,0,0,0,0,randonly selected as training point or test point
"1,3-Benzenediamine, 2-methyl-",421.45,1,Cc1c(N)cccc1N,le15,0,0,0,0,randonly selected as training point or test point
"4-Pyridinamine, N,N-dimethyl-",344.85,1,CN(C)c1ccncc1,le15,0,0,0,0,randonly selected as training point or test point
"2,6-dimethylpyridin-4-amine",399.607,1,Cc1cc(N)cc(C)n1,le15,0,0,0,0,randonly selected as training point or test point
"2-Pyridinamine, N,N-dimethyl- (9CI)",347.15,1,CN(C)c1ccccn1,le15,0,0,0,0,randonly selected as training point or test point
"2,3,5-Trimethylpyrazine",327.55,1,Cc1cnc(C)c(C)n1,le15,0,0,0,0,randonly selected as training point or test point
1-methyl-1-phenylhydrazine,366.75,1,CN(N)c1ccccc1,le15,0,0,0,0,randonly selected as training point or test point
"1,2-Benzenediamine, 3-methyl-",404.25,1,Cc1cccc(N)c1N,le15,0,0,0,0,randonly selected as training point or test point
Ethyl sulfone (8CI),391.55,1,CCS(=O)(=O)CC,le15,0,0,0,0,randonly selected as training point or test point
"Silane, trimethoxy-",268.75,1,CO[SiH](OC)OC,le15,1,1,0,0,randonly selected as training point or test point
prop-2-ynylcyclohexane,310.65,1,C#CCC1CCCCC1,le15,0,0,0,0,randonly selected as training point or test point
methyl(phenyl)silicon,311.65,1,C[Si]c1ccccc1,le15,1,1,0,0,randonly selected as training point or test point
Ethyl disulfide (8CI),313.15,1,CCSSCC,le15,0,0,0,0,randonly selected as training point or test point
"1,2-bis(methylsulfanyl)ethane",333.05,1,CSCCSC,le15,0,0,0,0,randonly selected as training point or test point
DiethylDisulfide,313.0,1,CCSSCC,le15,0,0,0,0,randonly selected as training point or test point
methyl 2-chloro-2-oxoacetate,319.85,1,COC(=O)C(=O)Cl,le15,0,0,0,0,randonly selected as training point or test point
"Carbonochloridic acid, 1-methylethyl ester",298.15,1,CC(C)OC(=O)Cl,le15,0,0,0,1,randonly selected as training point or test point
propyl carbonochloridate,302.25,1,CCCOC(=O)Cl,le15,0,0,0,0,randonly selected as training point or test point
"Butyric acid, 4-chloro- (8CI)",374.25,1,O=C(O)CCCCl,le15,0,0,0,1,randonly selected as training point or test point
methyl 3-chloropropanoate,313.65,1,COC(=O)CCCl,le15,0,0,0,0,randonly selected as training point or test point
2-ethoxyacetyl chloride,480.55,1,CCOCC(=O)Cl,le15,0,0,0,0,randonly selected as training point or test point
methyl 2-chloropropanoate,310.75,1,COC(=O)C(C)Cl,le15,0,0,0,0,randonly selected as training point or test point
"Acetic acid, chloro-, ethyl ester",338.75,1,CCOC(=O)CCl,le15,0,0,0,1,randonly selected as training point or test point
Ethylchloroacetate,326.0,1,CCOC(=O)CCl,le15,0,0,0,0,randonly selected as training point or test point
Acetyl bromide,322.75,1,CC(=O)Br,le15,0,0,0,0,randonly selected as training point or test point
"Acetaldehyde, bromo-",346.75,1,O=CCBr,le15,0,0,0,0,randonly selected as training point or test point
"1,4-dichlorobut-2-yne",433.15,1,ClCC#CCCl,le15,0,0,0,0,randonly selected as training point or test point
"2,3-dichlorobuta-1,3-diene",310.35,1,C=C(Cl)C(=C)Cl,le15,0,0,0,0,randonly selected as training point or test point
"Propane, 2-bromo-",292.55,1,CC(C)Br,le15,0,0,0,0,randonly selected as training point or test point
3-Pyridinecarboxylic acid,403.85,1,O=C(O)c1cccnc1,le15,0,0,0,1,randonly selected as training point or test point