compound,flashpoint,pure substance,smiles,source,is_silicon,is_metallic,is_tin,is_acid,data type
3-methylbutyl 2-hydroxypropanoate,347.15,1,CC(C)CCOC(=O)C(C)O,le15,0,0,0,0,randonly selected as training point or test point
naphthalene-2-thiol,407.35,1,Sc1ccc2ccccc2c1,le15,0,0,0,0,randonly selected as training point or test point
naphthalene-1-thiol,407.35,1,Sc1cccc2ccccc12,le15,0,0,0,0,randonly selected as training point or test point
"4,4-dimethyl-2,3-dihydro-1H-naphthalene",354.35,1,CC1(C)CCCc2ccccc21,le15,0,0,0,0,randonly selected as training point or test point
1-propan-2-yl-4-prop-1-en-2-ylbenzene,353.65,1,C=C(C)c1ccc(C(C)C)cc1,le15,0,0,0,0,randonly selected as training point or test point
"2,7-dimethyl-1,2,3,4-tetrahydronaphthalene",371.55,1,Cc1ccc2c(c1)CC(C)CC2,le15,0,0,0,0,randonly selected as training point or test point
"2-ethyl-1,2,3,4-tetrahydronaphthalene",365.95,1,CCC1CCc2ccccc2C1,le15,0,0,0,0,randonly selected as training point or test point
"5-ethyl-1,2,3,4-tetrahydronaphthalene",371.55,1,CCc1cccc2c1CCCC2,le15,0,0,0,0,randonly selected as training point or test point
"6,7-dimethyl-1,2,3,4-tetrahydronaphthalene",374.65,1,Cc1cc2c(cc1C)CCCC2,le15,0,0,0,0,randonly selected as training point or test point
"1,5-dimethyl-1,2,3,4-tetrahydronaphthalene",372.25,1,Cc1cccc2c1CCCC2C,le15,0,0,0,0,randonly selected as training point or test point
"6-ethyl-1,2,3,4-tetrahydronaphthalene",376.35,1,CCc1ccc2c(c1)CCCC2,le15,0,0,0,0,randonly selected as training point or test point
"1,3-Propanediol, 2-butyl-2-ethyl-",410.15,1,CCCCC(CC)(CO)CO,le15,0,0,0,0,randonly selected as training point or test point
"N,N,N',N'-Tetramethyl-2,2'-oxybis(ethylamine)",319.35,1,CN(C)CCOCCN(C)C,le15,0,0,0,0,randonly selected as training point or test point
"Decane, 1-fluoro-",379.25,1,CCCCCCCCCCF,le15,0,0,0,0,randonly selected as training point or test point
"Ether, 2-(butylthio)ethyl vinyl",353.65,1,C=COCCSCCCC,le15,0,0,0,0,randonly selected as training point or test point
"Thiourea, N,N'-bis(1-methylethyl)-",348.05,1,CC(C)NC(=S)NC(C)C,le15,0,0,0,0,randonly selected as training point or test point
ethenyl-diethoxy-methylsilane,290.95,1,C=C[Si](C)(OCC)OCC,le15,1,1,0,0,randonly selected as training point or test point
"Phosphorochloridothioic acid, O,O-dimethyl ester",366.15,1,COP(=S)(Cl)OC,le15,0,0,0,1,randonly selected as training point or test point
"Benzene, 2,4-dichloro-1-methyl-",352.55,1,Cc1ccc(Cl)cc1Cl,le15,0,0,0,0,randonly selected as training point or test point
"Toluene, 3,4-dichloro- (8CI)",359.15,1,Cc1ccc(Cl)c(Cl)c1,le15,0,0,0,0,randonly selected as training point or test point
"Toluene, alpha,alpha-dichloro- (8CI)",361.15,1,ClC(Cl)c1ccccc1,le15,0,0,0,0,randonly selected as training point or test point
"Benzene, 1-chloro-4-(chloromethyl)-",360.45,1,ClCc1ccc(Cl)cc1,le15,0,0,0,0,randonly selected as training point or test point
"1,3-dichloro-2-methylbenzene",355.95,1,Cc1c(Cl)cccc1Cl,le15,0,0,0,0,randonly selected as training point or test point
1-chloro-2-(chloromethyl)benzene,355.15,1,ClCc1ccccc1Cl,le15,0,0,0,0,randonly selected as training point or test point
1-chloro-3-(chloromethyl)benzene,371.15,1,ClCc1cccc(Cl)c1,le15,0,0,0,0,randonly selected as training point or test point
"1,3-dichloro-5-methylbenzene",352.35,1,Cc1cc(Cl)cc(Cl)c1,le15,0,0,0,0,randonly selected as training point or test point
"1,2-dichloro-3-methylbenzene",356.15,1,Cc1cccc(Cl)c1Cl,le15,0,0,0,0,randonly selected as training point or test point
"1,4-dichloro-2-methylbenzene",352.55,1,Cc1cc(Cl)ccc1Cl,le15,0,0,0,0,randonly selected as training point or test point
"o-Toluidine, alpha,alpha,alpha-trifluoro- (8CI)",339.15,1,Nc1ccccc1C(F)(F)F,le15,0,0,0,0,randonly selected as training point or test point
"m-Toluidine, alpha,alpha,alpha-trifluoro-",358.15,1,Nc1cccc(C(F)(F)F)c1,le15,0,0,0,0,randonly selected as training point or test point
"2(1H)-Quinolinone, 4-hydroxy-",410.65,1,O=c1cc(O)c2ccccc2[nH]1,le15,0,0,0,0,randonly selected as training point or test point
"2-methylisoindole-1,3-dione",390.55,1,CN1C(=O)c2ccccc2C1=O,le15,0,0,0,0,randonly selected as training point or test point
Methyl 4-cyanobenzoate,404.35,1,COC(=O)c1ccc(C#N)cc1,le15,0,0,0,0,randonly selected as training point or test point
8-Hydroxyquinoline-N-oxide,412.15,1,[O-][n+]1cccc2cccc(O)c21,le15,0,0,0,0,randonly selected as training point or test point
4-phenoxybutanenitrile,394.65,1,N#CCCCOc1ccccc1,le15,0,0,0,0,randonly selected as training point or test point
"Acetamide, N-phenyl-N-vinyl-",386.05,1,C=CN(C(C)=O)c1ccccc1,le15,0,0,0,0,randonly selected as training point or test point
"1,2-Dihydro-3,3-dimethyl-2-oxo-3H-indole",445.75,1,CC1(C)C(=O)Nc2ccccc21,le15,0,0,0,0,randonly selected as training point or test point
3-phenylpiperidine,388.638,1,c1ccc(C2CCCNC2)cc1,le15,0,0,0,0,randonly selected as training point or test point
1-phenylpiperidine,379.25,1,c1ccc(N2CCCCC2)cc1,le15,0,0,0,0,randonly selected as training point or test point
4-phenylpiperidine,386.12,1,c1ccc(C2CCNCC2)cc1,le15,0,0,0,0,randonly selected as training point or test point
"Ethanol, 2,2'-(butylimino)bis-",399.85,1,CCCCN(CCO)CCO,le15,0,0,0,0,randonly selected as training point or test point
"Ethanol, 2-(2-(diethylamino)ethoxy)-",368.95,1,CCN(CC)CCOCCO,le15,0,0,0,0,randonly selected as training point or test point
"Ethanol, 2,2'-(tert-butylimino)di- (6CI,7CI,8CI)",391.15,1,CC(C)(C)N(CCO)CCO,le15,0,0,0,0,randonly selected as training point or test point
"2,2-diethoxy-N,N-dimethylethanamine",318.15,1,CCOC(CN(C)C)OCC,le15,0,0,0,0,randonly selected as training point or test point
"4,4-diethoxybutan-1-amine",335.95,1,CCOC(CCCN)OCC,le15,0,0,0,0,randonly selected as training point or test point
1-(2-hydroxybutylamino)butan-2-ol,384.75,1,CCC(O)CNCC(O)CC,le15,0,0,0,0,randonly selected as training point or test point
"Carbamothioic acid, diethyl-, S-ethyl ester (9CI)",357.35,1,CCSC(=O)N(CC)CC,le15,0,0,0,1,randonly selected as training point or test point
"2-Propanone, 1,1,1-trichloro-",337.15,1,CC(=O)C(Cl)(Cl)Cl,le15,0,0,0,0,randonly selected as training point or test point
"1,1,3-trichloropropan-2-one",352.15,1,O=C(CCl)C(Cl)Cl,le15,0,0,0,0,randonly selected as training point or test point
2-(trichloromethyl)oxirane,337.45,1,ClC(Cl)(Cl)C1CO1,le15,0,0,0,0,randonly selected as training point or test point
"Propionaldehyde, 2,2,3-trichloro-",330.65,1,O=CC(Cl)(Cl)CCl,le15,0,0,0,0,randonly selected as training point or test point
"Silanamine, 1,1,1-trimethyl-N-(trimethylsilyl)-",303.15,1,C[Si](C)(C)N[Si](C)(C)C,le15,1,1,0,0,randonly selected as training point or test point
"1,1,3-trichlorobutane",344.95,1,CC(Cl)CC(Cl)Cl,le15,0,0,0,0,randonly selected as training point or test point
"1,2,3-trichloro-2-methylpropane",351.55,1,CC(Cl)(CCl)CCl,le15,0,0,0,0,randonly selected as training point or test point
"Silane, trichlorovinyl- (8CI)",283.75,1,[SiH3]C(Cl)=C(Cl)Cl,le15,1,1,0,0,randonly selected as training point or test point
"1H-Pyrazole, 3-chloro-5-methyl-4-nitro-",448.45,1,Cc1[nH]nc(Cl)c1[N+](=O)[O-],le15,0,0,0,0,randonly selected as training point or test point
"Benzenamine, 3,4-dichloro-",439.15,1,Nc1ccc(Cl)c(Cl)c1,le15,0,0,0,0,randonly selected as training point or test point
"Benzenamine, 2,5-dichloro-",412.15,1,Nc1cc(Cl)ccc1Cl,le15,0,0,0,0,randonly selected as training point or test point
"2,3-dichloroaniline",388.15,1,Nc1cccc(Cl)c1Cl,le15,0,0,0,0,randonly selected as training point or test point
"Benzenamine, 3,5-dichloro-",406.15,1,Nc1cc(Cl)cc(Cl)c1,le15,0,0,0,0,randonly selected as training point or test point
"Benzenamine, 2,4-dichloro-",373.35,1,Nc1ccc(Cl)cc1Cl,le15,0,0,0,0,randonly selected as training point or test point
5-Bromopentanenitrile,372.65,1,N#CCCCCBr,le15,0,0,0,0,randonly selected as training point or test point
2-(trifluoromethyl)phenol,338.15,1,Oc1ccccc1C(F)(F)F,le15,0,0,0,0,randonly selected as training point or test point
trifluoromethoxybenzene,285.35,1,FC(F)(F)Oc1ccccc1,le15,0,0,0,0,randonly selected as training point or test point
3-(trifluoromethyl)phenol,347.05,1,Oc1cccc(C(F)(F)F)c1,le15,0,0,0,0,randonly selected as training point or test point
"alpha,alpha,alpha-Trifluoro-p-cresol",353.25,1,Oc1ccc(C(F)(F)F)cc1,le15,0,0,0,0,randonly selected as training point or test point
1-benzofuran-2-carboxylic acid,416.45,1,O=C(O)c1cc2ccccc2o1,le15,0,0,0,1,randonly selected as training point or test point
"Acetonitrile, (o-nitrophenyl)-",411.15,1,N#CCc1ccccc1[N+](=O)[O-],le15,0,0,0,0,randonly selected as training point or test point
"1,4-Phthalazinedione, 2,3-dihydro-",543.55,1,O=c1[nH][nH]c(=O)c2ccccc12,le15,0,0,0,0,randonly selected as training point or test point
"Formic acid, oxydi-, diethyl ester",342.55,1,CCOC(=O)OC(=O)OCC,le15,0,0,0,1,randonly selected as training point or test point
"Phthalimide, N-amino- (8CI)",437.75,1,NN1C(=O)c2ccccc2C1=O,le15,0,0,0,0,randonly selected as training point or test point
"1H-Indole, 5-nitro- (9CI)",446.25,1,O=[N+]([O-])c1ccc2[nH]ccc2c1,le15,0,0,0,0,randonly selected as training point or test point
"Imidazole, 1,1'-carbonyldi- (8CI)",465.65,1,O=C(n1ccnc1)n1ccnc1,le15,0,0,0,0,randonly selected as training point or test point
"1,3-Butanedione, 1-phenyl-",370.05,1,CC(=O)CC(=O)c1ccccc1,le15,0,0,0,0,randonly selected as training point or test point
"Benzene, 4-allyl-1,2-(methylenedioxy)-",370.15,1,C=CCc1ccc2c(c1)OCO2,le15,0,0,0,0,randonly selected as training point or test point
"2-Propenoic acid, 3-phenyl-, methyl ester",414.45,1,COC(=O)C=Cc1ccccc1,le15,0,0,0,1,randonly selected as training point or test point
"Benzene, 1,2-(methylenedioxy)-4-propenyl-",383.15,1,CC=Cc1ccc2c(c1)OCO2,le15,0,0,0,0,randonly selected as training point or test point
"Silane, phenyltrifluoro-",288.35,1,F[Si](F)(F)c1ccccc1,le15,1,1,0,0,randonly selected as training point or test point
"2(3H)-Furanone, dihydro-5-phenyl- (8CI)(9CI)",408.65,1,O=C1CCC(c2ccccc2)O1,le15,0,0,0,0,randonly selected as training point or test point
"2-Propenal, 3-(2-methoxyphenyl)-",407.55,1,COc1ccccc1C=CC=O,le15,0,0,0,0,randonly selected as training point or test point
4-phenylbut-3-enoic acid,488.95,1,O=C(O)CC=Cc1ccccc1,le15,0,0,0,1,randonly selected as training point or test point
"2-Propenoic acid, phenylmethyl ester",388.65,1,C=CC(=O)OCc1ccccc1,le15,0,0,0,1,randonly selected as training point or test point
"Phenol, p-vinyl-, acetate (6CI,7CI,8CI)",361.15,1,C=Cc1ccc(OC(C)=O)cc1,le15,0,0,0,0,randonly selected as training point or test point
"2-Propen-1-ol, 3-phenyl-, formate",400.85,1,O=COCC=Cc1ccccc1,le15,0,0,0,0,randonly selected as training point or test point
"2-Pyrazolin-3-ol, 1-phenyl- (7CI)",410.85,1,OC1=NN(c2ccccc2)CC1,le15,0,0,0,0,randonly selected as training point or test point
"2,3-dihydroxypropyl butanoate",384.45,1,CCCC(=O)OCC(O)CO,le15,0,0,0,0,randonly selected as training point or test point
3-methyl-1-phenylbutan-1-one,362.841,1,CC(C)CC(=O)c1ccccc1,le15,0,0,0,0,randonly selected as training point or test point
"2,2-dimethyl-1-phenylpropan-1-one",359.15,1,CC(C)(C)C(=O)c1ccccc1,le15,0,0,0,0,randonly selected as training point or test point
"1-Pentanone, 1-phenyl-",372.85,1,CCCCC(=O)c1ccccc1,le15,0,0,0,0,randonly selected as training point or test point
"1-(2,4,6-trimethylphenyl)ethanone",372.15,1,CC(=O)c1c(C)cc(C)cc1C,le15,0,0,0,0,randonly selected as training point or test point
1-(4-methylphenyl)butan-1-one,383.25,1,CCCC(=O)c1ccc(C)cc1,le15,0,0,0,0,randonly selected as training point or test point
"1-(2,4,5-trimethylphenyl)ethanone",355.35,1,CC(=O)c1cc(C)c(C)cc1C,le15,0,0,0,0,randonly selected as training point or test point
"Pyridine, 3-(1-methyl-2-pyrrolidinyl)-, (S)- (9CI)",374.85,1,CN1CCC[C@H]1c1cccnc1,le15,0,0,0,0,randonly selected as training point or test point
"1,1,1-triethoxyethane",309.25,1,CCOC(C)(OCC)OCC,le15,0,0,0,0,randonly selected as training point or test point
Diethylene glycol monobutyl ether,373.15,1,CCCCOCCOCCO,le15,0,0,0,0,randonly selected as training point or test point
"Ethane, 1,1'-oxybis(2-ethoxy-",344.25,1,CCOCCOCCOCC,le15,0,0,0,0,randonly selected as training point or test point
3-piperidin-2-ylpyridine,366.15,1,c1cncc(C2CCCCN2)c1,le15,0,0,0,0,randonly selected as training point or test point
"Ethanol, 2-(2-(2-methylpropoxy)ethoxy)-",365.95,1,CC(C)COCCOCCO,le15,0,0,0,0,randonly selected as training point or test point
"Piperazine, 1-phenyl-",411.45,1,c1ccc(N2CCNCC2)cc1,le15,0,0,0,0,randonly selected as training point or test point
"1,2,3,4,5,6-hexamethylbenzene",534.55,1,Cc1c(C)c(C)c(C)c(C)c1C,le15,0,0,0,0,randonly selected as training point or test point
"Benzene, 1,3-bis(1-methylethyl)-",349.85,1,CC(C)c1cccc(C(C)C)c1,le15,0,0,0,0,randonly selected as training point or test point
"1,3,5-triethylbenzene",354.25,1,CCc1cc(CC)cc(CC)c1,le15,0,0,0,0,randonly selected as training point or test point
hexylbenzene,356.65,1,CCCCCCc1ccccc1,le15,0,0,0,0,randonly selected as training point or test point
2-methylpentan-2-ylbenzene,346.15,1,CCCC(C)(C)c1ccccc1,le15,0,0,0,0,randonly selected as training point or test point
1-tert-butyl-4-ethylbenzene,349.05,1,CCc1ccc(C(C)(C)C)cc1,le15,0,0,0,0,randonly selected as training point or test point
"1-tert-butyl-3,5-dimethylbenzene",344.95,1,Cc1cc(C)cc(C(C)(C)C)c1,le15,0,0,0,0,randonly selected as training point or test point
"1,4-di(propan-2-yl)benzene",349.15,1,CC(C)c1ccc(C(C)C)cc1,le15,0,0,0,0,randonly selected as training point or test point
"(1Z,5E,9E)-cyclododeca-1,5,9-triene",360.95,1,C1=C\CC/C=C/CC/C=C/CC/1,le15,0,0,0,0,randonly selected as training point or test point
hexan-3-ylbenzene,347.35,1,CCCC(CC)c1ccccc1,le15,0,0,0,0,randonly selected as training point or test point
"1,2,4-trimethyl-5-propan-2-ylbenzene",355.55,1,Cc1cc(C)c(C(C)C)cc1C,le15,0,0,0,0,randonly selected as training point or test point
"2H-1,3,5-Thiadiazine-2-thione, tetrahydro-3,5-dimethyl-",361.35,1,CN1CSC(=S)N(C)C1,le15,0,0,0,0,randonly selected as training point or test point
"Butane, 1,1'-sulfinylbis-",394.55,1,CCCCS(=O)CCCC,le15,0,0,0,0,randonly selected as training point or test point
"2,2,2-trichloroacetamide",361.65,1,NC(=O)C(Cl)(Cl)Cl,le15,0,0,0,0,randonly selected as training point or test point
"Disiloxane, 1,1,1,3,3,3-hexamethyl-",280.85,1,C[Si](C)(C)O[Si](C)(C)C,le15,1,1,0,0,randonly selected as training point or test point
"Naphthalene, 1-chloro-",394.25,1,Clc1cccc2ccccc12,le15,0,0,0,0,randonly selected as training point or test point
"Naphthalene, 2-chloro-",398.15,1,Clc1ccc2ccccc2c1,le15,0,0,0,0,randonly selected as training point or test point
1chlorononane,347.0,1,CCCCCCCCCCl,le15,0,0,0,0,randonly selected as training point or test point
"Phosphorodichloridic acid, ethyl ester",301.05,1,CCOP(=O)(Cl)Cl,le15,0,0,0,1,randonly selected as training point or test point
"Phenol, 2,6-dichloro-",368.05,1,Oc1c(Cl)cccc1Cl,le15,0,0,0,0,randonly selected as training point or test point
"Phenol, 3,4-dichloro-",382.25,1,Oc1ccc(Cl)c(Cl)c1,le15,0,0,0,0,randonly selected as training point or test point
"Phenol, 2,3-dichloro-",374.75,1,Oc1cccc(Cl)c1Cl,le15,0,0,0,0,randonly selected as training point or test point
"Phenol, 2,5-dichloro-",373.15,1,Oc1cc(Cl)ccc1Cl,le15,0,0,0,0,randonly selected as training point or test point
"Phenol, 3,5-dichloro-",380.05,1,Oc1cc(Cl)cc(Cl)c1,le15,0,0,0,0,randonly selected as training point or test point
"2,4-dichloro-5-methylpyrimidine",391.65,1,Cc1cnc(Cl)nc1Cl,le15,0,0,0,0,randonly selected as training point or test point
"2,4-dichloro-6-methylpyrimidine",380.15,1,Cc1cc(Cl)nc(Cl)n1,le15,0,0,0,0,randonly selected as training point or test point
"Ethanesulfonyl chloride, 2-chloro-",349.35,1,O=S(=O)(Cl)CCCl,le15,0,0,0,0,randonly selected as training point or test point
"Thiophene, 3-bromo-",329.85,1,Brc1ccsc1,le15,0,0,0,0,randonly selected as training point or test point
2-bromothiophene,320.202,1,Brc1cccs1,le15,0,0,0,0,randonly selected as training point or test point
"Cyclohexane, bromo-",335.95,1,BrC1CCCCC1,le15,0,0,0,0,randonly selected as training point or test point
"Benzimidazole, 5-nitro- (8CI)",514.65,1,O=[N+]([O-])c1ccc2nc[nH]c2c1,le15,0,0,0,0,randonly selected as training point or test point
"1H-Indazole, 7-nitro-",458.75,1,O=[N+]([O-])c1cccc2cn[nH]c12,le15,0,0,0,0,randonly selected as training point or test point
"1H-Indazole, 5-nitro-",458.75,1,O=[N+]([O-])c1ccc2[nH]ncc2c1,le15,0,0,0,0,randonly selected as training point or test point
"1H-Benzimidazole, 2-nitro- (9CI)",478.95,1,O=[N+]([O-])c1nc2ccccc2[nH]1,le15,0,0,0,0,randonly selected as training point or test point
"1H-Indazole, 6-nitro-",458.75,1,O=[N+]([O-])c1ccc2cn[nH]c2c1,le15,0,0,0,0,randonly selected as training point or test point
"2,6-dimethoxybenzonitrile",401.95,1,COc1cccc(OC)c1C#N,le15,0,0,0,0,randonly selected as training point or test point
"1,2-Propanedione, 1-phenyl-, 2-oxime",403.85,1,CC(=NO)C(=O)c1ccccc1,le15,0,0,0,0,randonly selected as training point or test point
"Acetanilide, 4'-formyl- (8CI)",454.95,1,CC(=O)Nc1ccc(C=O)cc1,le15,0,0,0,0,randonly selected as training point or test point
"2-Propenoic acid, 3-(4-aminophenyl)-",455.75,1,Nc1ccc(C=CC(=O)O)cc1,le15,0,0,0,1,randonly selected as training point or test point
Benzoyl isothiocyanate,379.15,1,O=C(N=C=S)c1ccccc1,le15,0,0,0,0,randonly selected as training point or test point
"Adenine, N,N-dimethyl- (8CI)",485.45,1,CN(C)c1ncnc2nc[nH]c12,le15,0,0,0,0,randonly selected as training point or test point
"Glycine, N-(2-mercapto-1-oxopropyl)- (9CI)",479.95,1,CC(S)C(=O)NCC(=O)O,le15,0,0,0,0,randonly selected as training point or test point
"6-methoxy-1,2,3,4-tetrahydroquinoline",389.65,1,COc1ccc2c(c1)CCCN2,le15,0,0,0,0,randonly selected as training point or test point
"Propanamide, 2-methyl-N-phenyl- (9CI)",458.95,1,CC(C)C(=O)Nc1ccccc1,le15,0,0,0,0,randonly selected as training point or test point
"1-Butanone, 1-(4-aminophenyl)-",419.25,1,CCCC(=O)c1ccc(N)cc1,le15,0,0,0,0,randonly selected as training point or test point
"Benzothiazole, 2,5-dimethyl-",383.15,1,Cc1ccc2sc(C)nc2c1,le15,0,0,0,0,randonly selected as training point or test point
"Isothiocyanic acid, phenethyl ester",373.15,1,S=C=NCCc1ccccc1,le15,0,0,0,1,randonly selected as training point or test point
Cyclohexanesulfonamide,408.25,1,NS(=O)(=O)C1CCCCC1,le15,0,0,0,0,randonly selected as training point or test point
"N,N-diethyl-3-methylaniline",374.15,1,CCN(CC)c1cccc(C)c1,le15,0,0,0,0,randonly selected as training point or test point
"N,N-diethyl-2-methylaniline",364.35,1,CCN(CC)c1ccccc1C,le15,0,0,0,0,randonly selected as training point or test point
"N,N-diethyl-4-methylaniline",374.25,1,CCN(CC)c1ccc(C)cc1,le15,0,0,0,0,randonly selected as training point or test point
"N,N,2,4,6-pentamethylaniline",352.05,1,Cc1cc(C)c(N(C)C)c(C)c1,le15,0,0,0,0,randonly selected as training point or test point
"Acetic acid, trichloro-",339.494,1,O=C(O)C(Cl)(Cl)Cl,le15,0,0,0,1,randonly selected as training point or test point
"2-Propanol, 1,1,1-trichloro-",355.35,1,CC(O)C(Cl)(Cl)Cl,le15,0,0,0,0,randonly selected as training point or test point
dichloro-(chloromethyl)-methylsilane,308.15,1,C[Si](Cl)(Cl)CCl,le15,1,1,0,0,randonly selected as training point or test point
"Quinoline, 8-chloro-",418.35,1,Clc1cccc2cccnc12,le15,0,0,0,0,randonly selected as training point or test point
"Quinoline, 6-chloro-",386.15,1,Clc1ccc2ncccc2c1,le15,0,0,0,0,randonly selected as training point or test point
4-Chloroquinoline,383.15,1,Clc1ccnc2ccccc12,le15,0,0,0,0,randonly selected as training point or test point
3-Chloroquinoline,406.35,1,Clc1cnc2ccccc2c1,le15,0,0,0,0,randonly selected as training point or test point
"Quinoline, 2-chloro-",414.35,1,Clc1ccc2ccccc2n1,le15,0,0,0,0,randonly selected as training point or test point
"Butanamide, 2-chloro-N,N-dimethyl-3-oxo-",362.15,1,CC(=O)C(Cl)C(=O)N(C)C,le15,0,0,0,0,randonly selected as training point or test point
"Methane, bromodichloro-",274.45,1,ClC(Cl)Br,le15,0,0,0,0,randonly selected as training point or test point
"Pyrimidine, 2-amino-4,6-dichloro- (8CI)",437.75,1,Nc1nc(Cl)cc(Cl)n1,le15,0,0,0,0,randonly selected as training point or test point