compound,flashpoint,pure substance,smiles,source,is_silicon,is_metallic,is_tin,is_acid,data type
"alpha,alpha,alpha,4-Tetrafluoro-o-toluidine",345.35,1,Nc1ccc(F)cc1C(F)(F)F,le15,0,0,0,0,randonly selected as training point or test point
"alpha,alpha,alpha,4-Tetrafluoro-m-toluidine",364.15,1,Nc1ccc(F)c(C(F)(F)F)c1,le15,0,0,0,0,randonly selected as training point or test point
"Benzamide, N-acetyl-2-hydroxy- (9CI)",454.05,1,CC(=O)NC(=O)c1ccccc1O,le15,0,0,0,0,randonly selected as training point or test point
"Benzoic acid, p-acetamido- (8CI)",492.85,1,CC(=O)Nc1ccc(C(=O)O)cc1,le15,0,0,0,1,randonly selected as training point or test point
"Hydrazine, 1-acetyl-2-isonicotinoyl-",504.25,1,CC(=O)NNC(=O)c1ccncc1,le15,0,0,0,0,randonly selected as training point or test point
phenanthridine,429.05,1,c1ccc2c(c1)cnc1ccccc12,le15,0,0,0,0,randonly selected as training point or test point
Benzo(h)quinoline,429.05,1,c1ccc2c(c1)ccc1cccnc12,le15,0,0,0,0,randonly selected as training point or test point
"Carbamic acid, phenyl-, 1-methylethyl ester",284.15,1,CC(C)OC(=O)Nc1ccccc1,le15,0,0,0,1,randonly selected as training point or test point
"2-Pyridinecarboxylic acid, 5-butyl-",426.05,1,CCCCc1ccc(C(=O)O)nc1,le15,0,0,0,1,randonly selected as training point or test point
"Phosphoric triamide, hexamethyl-",367.85,1,CN(C)P(=O)(N(C)C)N(C)C,le15,0,0,0,0,randonly selected as training point or test point
"Carbamic acid, alpha-methylphenethyl ester",445.55,1,CC(Cc1ccccc1)OC(N)=O,le15,0,0,0,1,randonly selected as training point or test point
ethyl 2-anilinoacetate,392.75,1,CCOC(=O)CNc1ccccc1,le15,0,0,0,0,randonly selected as training point or test point
"Carbamic acid, methyl-, 3,4-xylyl ester",389.35,1,CNC(=O)Oc1ccc(C)c(C)c1,le15,0,0,0,1,randonly selected as training point or test point
ethyl N-benzylcarbamate,411.05,1,CCOC(=O)NCc1ccccc1,le15,0,0,0,0,randonly selected as training point or test point
"Phenol, 3,5-dimethyl-, methylcarbamate (9CI)",387.35,1,CNC(=O)Oc1cc(C)cc(C)c1,le15,0,0,0,0,randonly selected as training point or test point
"Ether, butyl p-nitrosophenyl",396.15,1,CCCCOc1ccc(N=O)cc1,le15,0,0,0,0,randonly selected as training point or test point
1-tert-butyl-3-nitrobenzene,360.95,1,CC(C)(C)c1cccc([N+](=O)[O-])c1,le15,0,0,0,0,randonly selected as training point or test point
"Ethanol, 2-(ethyl(3-methylphenyl)amino)-",397.15,1,CCN(CCO)c1cccc(C)c1,le15,0,0,0,0,randonly selected as training point or test point
"1-Propene, 1,1,2,3-tetrachloro-",335.45,1,ClCC(Cl)=C(Cl)Cl,le15,0,0,0,0,randonly selected as training point or test point
"1,2,4,5-tetrafluoro-3-methoxybenzene",314.85,1,COc1c(F)c(F)cc(F)c1F,le15,0,0,0,0,randonly selected as training point or test point
"Benzoic acid, 2-(acetyloxy)-",523.15,1,CC(=O)Oc1ccccc1C(=O)O,le15,0,0,0,1,randonly selected as training point or test point
"2-Propenoic acid, 3-(3,4-dihydroxyphenyl)- (9CI)",493.15,1,O=C(O)C=Cc1ccc(O)c(O)c1,le15,0,0,0,1,randonly selected as training point or test point
4-methoxycarbonylbenzoic acid,409.15,1,COC(=O)c1ccc(C(=O)O)cc1,le15,0,0,0,1,randonly selected as training point or test point
D-Glucose,559.85,1,O=C[C@H](O)[C@@H](O)[C@H](O)[C@H](O)CO,le15,0,0,0,0,randonly selected as training point or test point
"Acetanilide, 4'-nitro- (8CI)",474.25,1,CC(=O)Nc1ccc([N+](=O)[O-])cc1,le15,0,0,0,0,randonly selected as training point or test point
[fluoro(methyl)phosphoryl]oxycyclohexane,370.45,1,CP(=O)(F)OC1CCCCC1,le15,0,0,0,0,randonly selected as training point or test point
"cyclohexane-1,2,3,4,5,6-hexol",416.537,1,OC1C(O)C(O)C(O)C(O)C1O,le15,0,0,0,0,randonly selected as training point or test point
"1H-Purine-2,6-dione, 3,7-dihydro-1,3-dimethyl-",501.576,1,Cn1c(=O)c2[nH]cnc2n(C)c1=O,le15,0,0,0,0,randonly selected as training point or test point
9H-Fluoren-9-one,417.292,1,O=C1c2ccccc2-c2ccccc21,le15,0,0,0,0,randonly selected as training point or test point
1H-Phenalen-1-one (9CI),431.05,1,O=C1C=Cc2cccc3cccc1c23,le15,0,0,0,0,randonly selected as training point or test point
"Phosphonic acid, methyl-, bis(1-methylethyl) ester",370.85,1,CC(C)OP(C)(=O)OC(C)C,le15,0,0,0,1,randonly selected as training point or test point
"1,10-Phenanthroline",437.906,1,c1cnc2c(c1)ccc1cccnc12,le15,0,0,0,0,randonly selected as training point or test point
"Benzoic acid, 4-hydroxy-, propyl ester",397.75,1,CCCOC(=O)c1ccc(O)cc1,le15,0,0,0,1,randonly selected as training point or test point
"Benzoic acid, 4-methoxy-, ethyl ester",379.25,1,CCOC(=O)c1ccc(OC)cc1,le15,0,0,0,1,randonly selected as training point or test point
(4-methoxyphenyl)methyl acetate,408.15,1,COc1ccc(COC(C)=O)cc1,le15,0,0,0,0,randonly selected as training point or test point
"1,7-Phenanthroline",437.95,1,c1cnc2c(c1)ccc1ncccc12,le15,0,0,0,0,randonly selected as training point or test point
propan-2-yl 2-hydroxybenzoate,369.65,1,CC(C)OC(=O)c1ccccc1O,le15,0,0,0,0,randonly selected as training point or test point
propyl 2-hydroxybenzoate,373.65,1,CCCOC(=O)c1ccccc1O,le15,0,0,0,0,randonly selected as training point or test point
"1-(3,4-dimethoxyphenyl)ethanone",386.55,1,COc1ccc(C(C)=O)cc1OC,le15,0,0,0,0,randonly selected as training point or test point
"1,3-Dioxolane-4-methanol, 2-phenyl-",426.45,1,OCC1COC(c2ccccc2)O1,le15,0,0,0,0,randonly selected as training point or test point
2-phenoxybutanoic acid,388.45,1,CCC(Oc1ccccc1)C(=O)O,le15,0,0,0,1,randonly selected as training point or test point
ethyl 3-methoxybenzoate,298.55,1,CCOC(=O)c1cccc(OC)c1,le15,0,0,0,0,randonly selected as training point or test point
2-Acetylamino-5-aminoanisole,396.75,1,COc1cc(N)ccc1NC(C)=O,le15,0,0,0,0,randonly selected as training point or test point
"Urea, (4-ethoxyphenyl)- (9CI)",407.75,1,CCOc1ccc(NC(N)=O)cc1,le15,0,0,0,0,randonly selected as training point or test point
"Benzothiazole, 2-amino-6-methoxy-",437.05,1,COc1ccc2nc(N)sc2c1,le15,0,0,0,0,randonly selected as training point or test point
"2-Benzothiazolamine, 4-methoxy- (9CI)",437.05,1,COc1cccc2sc(N)nc12,le15,0,0,0,0,randonly selected as training point or test point
"Benzene, 1,1'-(1,2-ethenediyl)bis-, (E)- (9CI)",401.65,1,C(=C/c1ccccc1)\c1ccccc1,le15,0,0,0,0,randonly selected as training point or test point
"9,10-dihydroanthracene",404.95,1,c1ccc2c(c1)Cc1ccccc1C2,le15,0,0,0,0,randonly selected as training point or test point
(Z)-stilbene,401.65,1,C(=C\c1ccccc1)\c1ccccc1,le15,0,0,0,0,randonly selected as training point or test point
"9H-Fluorene, 9-methyl- (9CI)",410.65,1,CC1c2ccccc2-c2ccccc21,le15,0,0,0,0,randonly selected as training point or test point
1-phenylethenylbenzene,386.15,1,C=C(c1ccccc1)c1ccccc1,le15,0,0,0,0,randonly selected as training point or test point
(E)-stilbene,401.65,1,C(=C/c1ccccc1)\c1ccccc1,le15,0,0,0,0,randonly selected as training point or test point
"Butanoic acid, 2-amino-4-(S-methylsulfonimidoyl)- (9CI)",439.95,1,CS(=N)(=O)CCC(N)C(=O)O,le15,0,0,0,1,randonly selected as training point or test point
"Phenol, 2-(1,1-dimethylethyl)-4-methoxy-",378.75,1,COc1ccc(O)c(C(C)(C)C)c1,le15,0,0,0,0,randonly selected as training point or test point
"Phenol, (1,1-dimethylethyl)-4-methoxy-",378.75,1,COc1ccc(O)c(C(C)(C)C)c1,le15,0,0,0,0,randonly selected as training point or test point
"Urea, 1-ethyl-3-phenyl-2-thio- (8CI)",387.15,1,CCNC(=S)Nc1ccccc1,le15,0,0,0,0,randonly selected as training point or test point
"2,5-ditert-butylfuran",345.25,1,CC(C)(C)c1ccc(C(C)(C)C)o1,le15,0,0,0,0,randonly selected as training point or test point
"Silane, dimethylethoxyphenyl-",346.25,1,CCO[Si](C)(C)c1ccccc1,le15,1,1,0,0,randonly selected as training point or test point
"2,4,6-trimethyl-1,3,5-trithiane",375.75,1,CC1SC(C)SC(C)S1,le15,0,0,0,0,randonly selected as training point or test point
"Toluene, o-chloro-alpha,alpha,alpha-trifluoro- (8CI)",317.15,1,FC(F)(F)c1ccccc1Cl,le15,0,0,0,0,randonly selected as training point or test point
"Toluene, p-chloro-alpha,alpha,alpha-trifluoro-",320.15,1,FC(F)(F)c1ccc(Cl)cc1,le15,0,0,0,0,randonly selected as training point or test point
"Toluene, m-chloro-alpha,alpha,alpha-trifluoro- (8CI)",309.15,1,FC(F)(F)c1cccc(Cl)c1,le15,0,0,0,0,randonly selected as training point or test point
"Propionic acid, 2-bromo-, ethyl ester (6CI,7CI,8CI)",331.55,1,CCOC(=O)C(C)Br,le15,0,0,0,1,randonly selected as training point or test point
"Valeric acid, 2-bromo- (8CI)",367.35,1,CCCC(Br)C(=O)O,le15,0,0,0,1,randonly selected as training point or test point
"Butanoic acid, 2-bromo-, methyl ester",331.55,1,CCC(Br)C(=O)OC,le15,0,0,0,1,randonly selected as training point or test point
methyl 4-bromobutanoate,360.15,1,COC(=O)CCCBr,le15,0,0,0,0,randonly selected as training point or test point
"Propionic acid, 3-bromo-, ethyl ester (8CI)",343.15,1,CCOC(=O)CCBr,le15,0,0,0,1,randonly selected as training point or test point
"Butanoic acid, 2-bromo-3-methyl-",380.15,1,CC(C)C(Br)C(=O)O,le15,0,0,0,1,randonly selected as training point or test point
"Pentanoic acid, 5-bromo-",387.55,1,O=C(O)CCCCBr,le15,0,0,0,1,randonly selected as training point or test point
"1-Hexanol, 6-bromo-",368.75,1,OCCCCCCBr,le15,0,0,0,0,randonly selected as training point or test point
methyl 3-nitrobenzoate,409.95,1,COC(=O)c1cccc([N+](=O)[O-])c1,le15,0,0,0,0,randonly selected as training point or test point
"Benzoic acid, 2-methyl-3-nitro-",425.05,1,Cc1c(C(=O)O)cccc1[N+](=O)[O-],le15,0,0,0,1,randonly selected as training point or test point
"Benzoic acid, 2-methyl-5-nitro-",432.75,1,Cc1ccc([N+](=O)[O-])cc1C(=O)O,le15,0,0,0,1,randonly selected as training point or test point
"Benzoic acid, 5-methyl-2-nitro-",438.15,1,Cc1ccc([N+](=O)[O-])c(C(=O)O)c1,le15,0,0,0,1,randonly selected as training point or test point
"Acetic acid, (o-nitrophenyl)-",429.05,1,O=C(O)Cc1ccccc1[N+](=O)[O-],le15,0,0,0,1,randonly selected as training point or test point
"Benzoic acid, 3-methyl-2-nitro-",426.508,1,Cc1cccc(C(=O)O)c1[N+](=O)[O-],le15,0,0,0,1,randonly selected as training point or test point
"p-Toluic acid, 3-nitro- (8CI)",432.15,1,Cc1ccc(C(=O)O)c([N+](=O)[O-])c1,le15,0,0,0,1,randonly selected as training point or test point
"Acetic acid, (p-nitrophenyl)-",444.75,1,O=C(O)Cc1ccc([N+](=O)[O-])cc1,le15,0,0,0,1,randonly selected as training point or test point
"Benzeneacetic acid, 3-nitro- (9CI)",442.95,1,O=C(O)Cc1cccc([N+](=O)[O-])c1,le15,0,0,0,1,randonly selected as training point or test point
"Benzoic acid, 3-methyl-4-nitro-",434.35,1,Cc1cc(C(=O)O)ccc1[N+](=O)[O-],le15,0,0,0,1,randonly selected as training point or test point
"Benzenamine, N-methyl-4-nitro-N-nitroso- (9CI)",457.05,1,CN(N=O)c1ccc([N+](=O)[O-])cc1,le15,0,0,0,0,randonly selected as training point or test point
9H-Fluoren-2-amine,477.95,1,Nc1ccc2c(c1)Cc1ccccc1-2,le15,0,0,0,0,randonly selected as training point or test point
9-Aminofluorene,441.25,1,NC1c2ccccc2-c2ccccc21,le15,0,0,0,0,randonly selected as training point or test point
"N,1-diphenylmethanimine",400.324,1,C(=Nc1ccccc1)c1ccccc1,le15,0,0,0,0,randonly selected as training point or test point
3-methyl-9H-carbazole,438.55,1,Cc1ccc2[nH]c3ccccc3c2c1,le15,0,0,0,0,randonly selected as training point or test point
9H-Fluoren-1-amine (9CI),461.95,1,Nc1cccc2c1Cc1ccccc1-2,le15,0,0,0,0,randonly selected as training point or test point
diphenylmethanimine,397.45,1,N=C(c1ccccc1)c1ccccc1,le15,0,0,0,0,randonly selected as training point or test point
"9H-Carbazole, 9-methyl- (9CI)",431.25,1,Cn1c2ccccc2c2ccccc21,le15,0,0,0,0,randonly selected as training point or test point
9H-Fluoren-3-amine (9CI),466.45,1,Nc1ccc2c(c1)-c1ccccc1C2,le15,0,0,0,0,randonly selected as training point or test point
9H-Fluoren-4-amine (9CI),477.95,1,Nc1cccc2c1-c1ccccc1C2,le15,0,0,0,0,randonly selected as training point or test point
"Ethanol, 2,2'-(phenylimino)bis-",473.15,1,OCCN(CCO)c1ccccc1,le15,0,0,0,0,randonly selected as training point or test point
"3-methyl-1,3-benzothiazole-2-thione",408.75,1,Cn1c(=S)sc2ccccc21,le15,0,0,0,0,randonly selected as training point or test point
Lauronitrile (8CI),387.15,1,CCCCCCCCCCCC#N,le15,0,0,0,0,randonly selected as training point or test point
"Cyclohexanamine, N-cyclohexyl-",369.25,1,C1CCC(NC2CCCCC2)CC1,le15,0,0,0,0,randonly selected as training point or test point
2-chloro-5-(trifluoromethyl)pyridine,330.754,1,FC(F)(F)c1ccc(Cl)nc1,le15,0,0,0,0,randonly selected as training point or test point
"Acetyl chloride, trichloro-",304.15,1,O=C(Cl)C(Cl)(Cl)Cl,le15,0,0,0,0,randonly selected as training point or test point
"Propane, 1,1,1,3-tetrachloro-",324.55,1,ClCCC(Cl)(Cl)Cl,le15,0,0,0,0,randonly selected as training point or test point
"Propane, 1,2,2,3-tetrachloro-",335.65,1,ClCC(Cl)(Cl)CCl,le15,0,0,0,0,randonly selected as training point or test point
"1,1,2,2-tetrachloropropane",319.05,1,CC(Cl)(Cl)C(Cl)Cl,le15,0,0,0,0,randonly selected as training point or test point
"1,1,2,3-tetrachloropropane",336.75,1,ClCC(Cl)C(Cl)Cl,le15,0,0,0,0,randonly selected as training point or test point
4-bromobenzonitrile,370.15,1,N#Cc1ccc(Br)cc1,le15,0,0,0,0,randonly selected as training point or test point
2-bromobenzonitrile,386.85,1,N#Cc1ccccc1Br,le15,0,0,0,0,randonly selected as training point or test point
3-bromobenzonitrile,363.45,1,N#Cc1cccc(Br)c1,le15,0,0,0,0,randonly selected as training point or test point
"1,1,1-trifluoro-2-(2,2,2-trifluoroethoxy)ethane",274.85,1,FC(F)(F)COCC(F)(F)F,le15,0,0,0,0,randonly selected as training point or test point
"2,2,3,4,4,4-hexafluorobutan-1-ol",324.85,1,OCC(F)(F)C(F)C(F)(F)F,le15,0,0,0,0,randonly selected as training point or test point
"2,3,5,6-Tetrafluorohydroquinone",351.25,1,Oc1c(F)c(F)c(O)c(F)c1F,le15,0,0,0,0,randonly selected as training point or test point
"1,2,3,4,5-pentafluoro-6-methylbenzene",307.55,1,Cc1c(F)c(F)c(F)c(F)c1F,le15,0,0,0,0,randonly selected as training point or test point
"1,2,3-Propanetriol, 1,3-dinitrate (9CI)",329.95,1,O=[N+]([O-])OCC(O)CO[N+](=O)[O-],le15,0,0,0,0,randonly selected as training point or test point
"Butanenitrile, 4-(dichloromethylsilyl)-",365.15,1,N#CCCC[SiH2]C(Cl)Cl,le15,1,1,0,0,randonly selected as training point or test point
"Benzene, 1-methyl-2,3-dinitro-",443.35,1,Cc1cccc([N+](=O)[O-])c1[N+](=O)[O-],le15,0,0,0,0,randonly selected as training point or test point
"Benzoic acid, 2-amino-4-nitro-",487.85,1,Nc1cc([N+](=O)[O-])ccc1C(=O)O,le15,0,0,0,1,randonly selected as training point or test point
"Phosphoric acid, triethyl ester",388.75,1,CCOP(=O)(OCC)OCC,le15,0,0,0,1,randonly selected as training point or test point
"1,2-Acenaphthylenedione",423.35,1,O=c1c(=O)c2cccc3cccc1c32,le15,0,0,0,0,randonly selected as training point or test point
"2,5-Cyclohexadiene-1,4-dione, 2,3-dimethoxy-5-methyl-",421.75,1,COC1=C(OC)C(=O)C(C)=CC1=O,le15,0,0,0,0,randonly selected as training point or test point
"Benzoic acid, 2,6-dimethoxy-",399.65,1,COc1cccc(OC)c1C(=O)O,le15,0,0,0,1,randonly selected as training point or test point
"1-Propanone, 1-(2,4,6-trihydroxyphenyl)-",447.85,1,CCC(=O)c1c(O)cc(O)cc1O,le15,0,0,0,0,randonly selected as training point or test point
"4,6-Dimethoxysalicylaldehyde",411.15,1,COc1cc(O)c(C=O)c(OC)c1,le15,0,0,0,0,randonly selected as training point or test point
methyl 4-hydroxy-3-methoxybenzoate,393.35,1,COC(=O)c1ccc(O)c(OC)c1,le15,0,0,0,0,randonly selected as training point or test point
D-Glucitol,565.65,1,OC[C@H](O)[C@@H](O)[C@H](O)[C@H](O)CO,le15,0,0,0,0,randonly selected as training point or test point
"Phosphonofluoridic acid, methyl-, 1,2,2-trimethylpropyl ester",348.65,1,CC(OP(C)(=O)F)C(C)(C)C,le15,0,0,0,1,randonly selected as training point or test point
"Benzenamine, 4-ethoxy-2-nitro-",436.35,1,CCOc1ccc(N)c([N+](=O)[O-])c1,le15,0,0,0,0,randonly selected as training point or test point
D-Mannitol,565.6469999999998,1,OC[C@@H](O)[C@@H](O)[C@H](O)[C@H](O)CO,le15,0,0,0,0,randonly selected as training point or test point
"1H-Imidazole-4-carboxamide, 5-(3,3-dimethyl-1-triazenyl)-",502.85,1,CN(C)N=Nc1[nH]cnc1C(N)=O,le15,0,0,0,0,randonly selected as training point or test point
"Methanone, diphenyl-",396.85,1,O=C(c1ccccc1)c1ccccc1,le15,0,0,0,0,randonly selected as training point or test point
"(1,1'-Biphenyl)-4-carboxaldehyde (9CI)",459.25,1,O=Cc1ccc(-c2ccccc2)cc1,le15,0,0,0,0,randonly selected as training point or test point
"3-Biphenylcarboxaldehyde (6CI,7CI,8CI)",465.15,1,O=Cc1cccc(-c2ccccc2)c1,le15,0,0,0,0,randonly selected as training point or test point
"1,2-Propanediol, 3-(2-methylphenoxy)-",434.65,1,Cc1ccccc1OCC(O)CO,le15,0,0,0,0,randonly selected as training point or test point
"Diazene, diphenyl-",396.05,1,c1ccc(N=Nc2ccccc2)cc1,le15,0,0,0,0,randonly selected as training point or test point
"Ethanol, 2-(2-phenoxyethoxy)-",414.05,1,OCCOCCOc1ccccc1,le15,0,0,0,0,randonly selected as training point or test point
"5,8,8-trimethyl-3-oxabicyclo[3.2.1]octane-2,4-dione",394.25,1,CC12CCC(C(=O)OC1=O)C2(C)C,le15,0,0,0,0,randonly selected as training point or test point
"6-Oxabicyclo(3.1.0)hexane, 2,2'-oxybis-",366.35,1,C1CC2OC2C1OC1CCC2OC12,le15,0,0,0,0,randonly selected as training point or test point
"Butanedioic acid, 2,3-dimercapto-",388.772,1,O=C(O)C(S)C(S)C(=O)O,le15,0,0,0,1,randonly selected as training point or test point
9H-Carbazol-2-amine (9CI),523.75,1,Nc1ccc2c(c1)[nH]c1ccccc12,le15,0,0,0,0,randonly selected as training point or test point
diphenyldiazene,396.05,1,c1ccc(N=Nc2ccccc2)cc1,le15,0,0,0,0,randonly selected as training point or test point
furan-2-ylmethyl pentanoate,371.45,1,CCCCC(=O)OCc1ccco1,le15,0,0,0,0,randonly selected as training point or test point
"Phosphonothioic acid, ethyl-, O,O-diethyl ester",345.35,1,CCOP(=S)(CC)OCC,le15,0,0,0,1,randonly selected as training point or test point
"Phosphonothioic acid, ethyl-, O,S-diethyl ester",364.85,1,CCOP(=O)(CC)SCC,le15,0,0,0,1,randonly selected as training point or test point
1-methyl-2-(2-methylphenyl)benzene,380.05,1,Cc1ccccc1-c1ccccc1C,le15,0,0,0,0,randonly selected as training point or test point
1-phenylethylbenzene,382.75,1,CC(c1ccccc1)c1ccccc1,le15,0,0,0,0,randonly selected as training point or test point
1-benzyl-4-methylbenzene,393.75,1,Cc1ccc(Cc2ccccc2)cc1,le15,0,0,0,0,randonly selected as training point or test point
1-benzyl-2-methylbenzene,395.45,1,Cc1ccccc1Cc1ccccc1,le15,0,0,0,0,randonly selected as training point or test point
1-ethyl-2-phenylbenzene,410.05,1,CCc1ccccc1-c1ccccc1,le15,0,0,0,0,randonly selected as training point or test point
"1,2-dimethyl-4-phenylbenzene",402.05,1,Cc1ccc(-c2ccccc2)cc1C,le15,0,0,0,0,randonly selected as training point or test point
1-ethyl-3-phenylbenzene,398.45,1,CCc1cccc(-c2ccccc2)c1,le15,0,0,0,0,randonly selected as training point or test point
1-methyl-3-(4-methylphenyl)benzene,398.95,1,Cc1ccc(-c2cccc(C)c2)cc1,le15,0,0,0,0,randonly selected as training point or test point
"1,3-dimethyl-5-phenylbenzene",394.75,1,Cc1cc(C)cc(-c2ccccc2)c1,le15,0,0,0,0,randonly selected as training point or test point
Bibenzyl,402.0,1,c1ccc(CCc2ccccc2)cc1,le15,0,0,0,0,randonly selected as training point or test point
"2,6-Octadien-1-ol, 3,7-dimethyl-, formate, (2E)-",382.25,1,CC(C)=CCC/C(C)=C/COC=O,le15,0,0,0,0,randonly selected as training point or test point
"1,6-Octadien-3-ol, 3,7-dimethyl-, formate",358.75,1,C=CC(C)(CCC=C(C)C)OC=O,le15,0,0,0,0,randonly selected as training point or test point
"Cyclohexaneacetic acid, 2-propenyl ester",371.95,1,C=CCOC(=O)CC1CCCCC1,le15,0,0,0,1,randonly selected as training point or test point
"Silane, dimethoxymethylphenyl-",353.15,1,COC(OC)[SiH2]c1ccccc1,le15,1,1,0,0,randonly selected as training point or test point
13-Oxabicyclo(10.1.0)tridecane,386.15,1,C1CCCCCC2OC2CCCC1,le15,0,0,0,0,randonly selected as training point or test point
cyclohexyloxycyclohexane,367.05,1,C1CCC(OC2CCCCC2)CC1,le15,0,0,0,0,randonly selected as training point or test point
Dodec-2-en-1-al,394.15,1,CCCCCCCCCC=CC=O,le15,0,0,0,0,randonly selected as training point or test point
"Cyclopentanone, 2-heptyl-",371.75,1,CCCCCCCC1CCCC1=O,le15,0,0,0,0,randonly selected as training point or test point