compound,flashpoint,pure substance,smiles,source,is_silicon,is_metallic,is_tin,is_acid,data type
"2,3,4,5-Tetrafluorobenzonitrile",343.15,1,N#Cc1cc(F)c(F)c(F)c1F,le15,0,0,0,0,randonly selected as training point or test point
"1-phenylpyrrolidine-2,5-dione",476.75,1,O=C1CCC(=O)N1c1ccccc1,le15,0,0,0,0,randonly selected as training point or test point
Ethyl 4-cyanobenzoate,412.05,1,CCOC(=O)c1ccc(C#N)cc1,le15,0,0,0,0,randonly selected as training point or test point
Indole-3-acetic acid (8CI),477.95,1,O=C(O)Cc1c[nH]c2ccccc12,le15,0,0,0,1,randonly selected as training point or test point
"2-ethylisoindole-1,3-dione",394.95,1,CCN1C(=O)c2ccccc2C1=O,le15,0,0,0,0,randonly selected as training point or test point
"2-Propenal, 3-(4-(dimethylamino)phenyl)-",404.35,1,CN(C)c1ccc(C=CC=O)cc1,le15,0,0,0,0,randonly selected as training point or test point
N-cyclohexylaniline,408.65,1,c1ccc(NC2CCCCC2)cc1,le15,0,0,0,0,randonly selected as training point or test point
1-benzylpiperidine,367.15,1,c1ccc(CN2CCCCC2)cc1,le15,0,0,0,0,randonly selected as training point or test point
4-benzylpiperidine,398.55,1,c1ccc(CC2CCNCC2)cc1,le15,0,0,0,0,randonly selected as training point or test point
2-benzylpiperidine,389.25,1,c1ccc(CC2CCCCN2)cc1,le15,0,0,0,0,randonly selected as training point or test point
"2,3,3-trichloroprop-2-enoic acid",397.55,1,O=C(O)C(Cl)=C(Cl)Cl,le15,0,0,0,1,randonly selected as training point or test point
"Butane, 1,2-epoxy-4,4,4-trichloro-",348.95,1,ClC(Cl)(Cl)CC1CO1,le15,0,0,0,0,randonly selected as training point or test point
"Benzene, 2-chloro-1-fluoro-4-nitro-",343.15,1,O=[N+]([O-])c1ccc(F)c(Cl)c1,le15,0,0,0,0,randonly selected as training point or test point
"2-bromo-1,1-dichloroethene",292.55,1,ClC(Cl)=CBr,le15,0,0,0,0,randonly selected as training point or test point
L-Ascorbic acid,453.55,1,O=C1O[C@H]([C@@H](O)CO)C(O)=C1O,le15,0,0,0,1,randonly selected as training point or test point
"2,3-Didehydro-D-erythro-hexono-1,4-lactone",511.35,1,O=C1O[C@H]([C@H](O)CO)C(=O)C1=O,le15,0,0,0,0,randonly selected as training point or test point
"Fumaric acid, dihydroxy-, dimethyl ester",383.95,1,COC(=O)/C(O)=C(\O)C(=O)OC,le15,0,0,0,1,randonly selected as training point or test point
"Toluene-3,5-diamine, alpha,alpha,alpha-trifluoro- (8CI)",395.65,1,Nc1cc(N)cc(C(F)(F)F)c1,le15,0,0,0,0,randonly selected as training point or test point
"2H-1-Benzopyran-2-one, 7-methoxy-",411.75,1,COc1ccc2ccc(=O)oc2c1,le15,0,0,0,0,randonly selected as training point or test point
"4(5H)-Oxazolone, 2-amino-5-phenyl-",416.55,1,NC1=NC(=O)C(c2ccccc2)O1,le15,0,0,0,0,randonly selected as training point or test point
"Quinoline, 4-(hydroxyamino)-, 1-oxide",433.95,1,[O-][n+]1ccc(NO)c2ccccc21,le15,0,0,0,0,randonly selected as training point or test point
(2-acetyloxy-3-hydroxypropyl) acetate,373.35,1,CC(=O)OCC(CO)OC(C)=O,le15,0,0,0,0,randonly selected as training point or test point
"Butane, 2,3-dimethyl-2,3-dinitro-",353.35,1,CC(C)([N+](=O)[O-])C(C)(C)[N+](=O)[O-],le15,0,0,0,0,randonly selected as training point or test point
"2-Propenoic acid, 3-phenyl-, ethyl ester",421.75,1,CCOC(=O)C=Cc1ccccc1,le15,0,0,0,1,randonly selected as training point or test point
"2-Propen-1-ol, 3-phenyl-, acetate",403.65,1,CC(=O)OCC=Cc1ccccc1,le15,0,0,0,0,randonly selected as training point or test point
"3-Buten-2-one, 4-(p-methoxyphenyl)- (8CI)",421.45,1,COc1ccc(C=CC(C)=O)cc1,le15,0,0,0,0,randonly selected as training point or test point
"Benzeneacetic acid, 2-propenyl ester",386.15,1,C=CCOC(=O)Cc1ccccc1,le15,0,0,0,1,randonly selected as training point or test point
"Methanone, cyclopropyl(4-methoxyphenyl)-",413.15,1,COc1ccc(C(=O)C2CC2)cc1,le15,0,0,0,0,randonly selected as training point or test point
"3-Butyne-1,2-diol, 2-methyl-1-phenyl-",436.25,1,C#CC(C)(O)C(O)c1ccccc1,le15,0,0,0,0,randonly selected as training point or test point
"2-Propenoic acid, 2-methyl-, phenylmethyl ester",380.35,1,C=C(C)C(=O)OCc1ccccc1,le15,0,0,0,1,randonly selected as training point or test point
"Propane, 1,2-epoxy-3-(p-vinylphenoxy)- (7CI,8CI)",399.65,1,C=Cc1ccc(OCC2CO2)cc1,le15,0,0,0,0,randonly selected as training point or test point
"2,4,6,8-Tetramethyl-1,3,5,7-tetraoxacyclooctane",323.15,1,CC1OC(C)OC(C)OC(C)O1,le15,0,0,0,0,randonly selected as training point or test point
"Ethanol, 2-(2-ethoxyethoxy)-, acetate",373.15,1,CCOCCOCCOC(C)=O,le15,0,0,0,0,randonly selected as training point or test point
"ethyl 2,2-diethoxyacetate",346.15,1,CCOC(=O)C(OCC)OCC,le15,0,0,0,0,randonly selected as training point or test point
"Phosphine oxide, tripropyl-",404.45,1,CCCP(=O)(CCC)CCC,le15,0,0,0,0,randonly selected as training point or test point
[acetyloxy(dimethyl)silyl] acetate,317.85,1,CC(=O)O[Si](C)(C)OC(C)=O,le15,1,1,0,0,randonly selected as training point or test point
"1-Hexanone, 1-phenyl-",378.65,1,CCCCCC(=O)c1ccccc1,le15,0,0,0,0,randonly selected as training point or test point
"Phenol, p-cyclohexyl- (8CI)",426.15,1,Oc1ccc(C2CCCCC2)cc1,le15,0,0,0,0,randonly selected as training point or test point
"Cyclohexanol, 2-phenyl-",386.45,1,OC1CCCCC1c1ccccc1,le15,0,0,0,0,randonly selected as training point or test point
4-methyl-1-phenylpentan-1-one,372.55,1,CC(C)CCC(=O)c1ccccc1,le15,0,0,0,0,randonly selected as training point or test point
trans-2-Phenylcyclohexanol,386.45,1,O[C@@H]1CCCC[C@H]1c1ccccc1,le15,0,0,0,0,randonly selected as training point or test point
cyclohexyloxybenzene,372.05,1,c1ccc(OC2CCCCC2)cc1,le15,0,0,0,0,randonly selected as training point or test point
"1,1,1-triethoxypropane",333.15,1,CCOC(CC)(OCC)OCC,le15,0,0,0,0,randonly selected as training point or test point
"2-Propanol, 1-(2-butoxyethoxy)-",377.45,1,CCCCOCCOCC(C)O,le15,0,0,0,0,randonly selected as training point or test point
"2-Propanol, 1-(1-methyl-2-propoxyethoxy)-",373.85,1,CCCOCC(C)OCC(C)O,le15,0,0,0,0,randonly selected as training point or test point
"Piperazine, 1-(phenylmethyl)-",388.75,1,c1ccc(CN2CCNCC2)cc1,le15,0,0,0,0,randonly selected as training point or test point
"1-Propanamine, 3,3'-(1,2-ethanediylbis(oxy))bis-",394.65,1,NCCCOCCOCCCN,le15,0,0,0,0,randonly selected as training point or test point
"2,4-dimethylpentan-3-ylbenzene",353.65,1,CC(C)C(c1ccccc1)C(C)C,le15,0,0,0,0,randonly selected as training point or test point
Heptylbenzene,368.0,1,CCCCCCCc1ccccc1,le15,0,0,0,0,randonly selected as training point or test point
chloro(iodo)methane,288.75,1,ClCI,le15,0,0,0,0,randonly selected as training point or test point
Benzenesulphonyl chloride,379.05,1,O=S(=O)(Cl)c1ccccc1,le15,0,0,0,0,randonly selected as training point or test point
"Benzenesulfinic acid, 4-chloro-",447.05,1,O=S(O)c1ccc(Cl)cc1,le15,0,0,0,1,randonly selected as training point or test point
"Naphthalene, 1-(chloromethyl)-",403.05,1,ClCc1cccc2ccccc12,le15,0,0,0,0,randonly selected as training point or test point
nonanoyl chloride,368.15,1,CCCCCCCCC(=O)Cl,le15,0,0,0,0,randonly selected as training point or test point
1-chlorodecane,356.45,1,CCCCCCCCCCCl,le15,0,0,0,0,randonly selected as training point or test point
"2,4-dichloro-5-methylphenol",382.05,1,Cc1cc(O)c(Cl)cc1Cl,le15,0,0,0,0,randonly selected as training point or test point
"o-Cresol, 4,6-dichloro- (8CI)",381.05,1,Cc1cc(Cl)cc(Cl)c1O,le15,0,0,0,0,randonly selected as training point or test point
"Benzenemethanol, 3,4-dichloro-",388.95,1,OCc1ccc(Cl)c(Cl)c1,le15,0,0,0,0,randonly selected as training point or test point
"Phenol, 2,4-dichloro-3-methyl-",381.35,1,Cc1c(Cl)ccc(O)c1Cl,le15,0,0,0,0,randonly selected as training point or test point
"2,6-dichloro-4-methylphenol",376.05,1,Cc1cc(Cl)c(O)c(Cl)c1,le15,0,0,0,0,randonly selected as training point or test point
"2,6-dichloro-3-methylphenol",375.55,1,Cc1ccc(Cl)c(O)c1Cl,le15,0,0,0,0,randonly selected as training point or test point
2-bromo-5-methylthiophene,333.75,1,Cc1ccc(Br)s1,le15,0,0,0,0,randonly selected as training point or test point
2-bromo-3-methylthiophene,341.45,1,Cc1ccsc1Br,le15,0,0,0,0,randonly selected as training point or test point
"1,3,5-trifluoro-2-nitrobenzene",354.45,1,O=[N+]([O-])c1c(F)cc(F)cc1F,le15,0,0,0,0,randonly selected as training point or test point
"1,2,3-Trifluoro-4-nitrobenzene",366.15,1,O=[N+]([O-])c1ccc(F)c(F)c1F,le15,0,0,0,0,randonly selected as training point or test point
"1,2,4-trifluoro-5-nitrobenzene",358.25,1,O=[N+]([O-])c1cc(F)c(F)cc1F,le15,0,0,0,0,randonly selected as training point or test point
1-bromo-3-methylcyclohexane,338.65,1,CC1CCCC(Br)C1,le15,0,0,0,0,randonly selected as training point or test point
2-Nitrocinnamaldehyde,451.25,1,O=CC=Cc1ccccc1[N+](=O)[O-],le15,0,0,0,0,randonly selected as training point or test point
"2-Propenal, 3-(4-nitrophenyl)-",424.75,1,O=CC=Cc1ccc([N+](=O)[O-])cc1,le15,0,0,0,0,randonly selected as training point or test point
"2-Furanacrylic acid, alpha-cyano-, methyl ester",401.25,1,COC(=O)C(C#N)=Cc1ccco1,le15,0,0,0,1,randonly selected as training point or test point
1-N-Methyl-5-nitroindazole,443.85,1,Cn1ncc2cc([N+](=O)[O-])ccc21,le15,0,0,0,0,randonly selected as training point or test point
"2H-Indazole, 2-methyl-6-nitro-",447.35,1,Cn1cc2ccc([N+](=O)[O-])cc2n1,le15,0,0,0,0,randonly selected as training point or test point
"Benzimidazole, 1-methyl-6-nitro- (8CI)",443.85,1,Cn1cnc2ccc([N+](=O)[O-])cc21,le15,0,0,0,0,randonly selected as training point or test point
"Butanamide, 3-oxo-N-phenyl-",435.15,1,CC(=O)CC(=O)Nc1ccccc1,le15,0,0,0,0,randonly selected as training point or test point
"Anthranilic acid, allyl ester (8CI)",429.25,1,C=CCOC(=O)c1ccccc1N,le15,0,0,0,1,randonly selected as training point or test point
"1H-Benzimidazol-2-amine, 5-methoxy-1-methyl-",452.35,1,COc1ccc2c(c1)nc(N)n2C,le15,0,0,0,0,randonly selected as training point or test point
"Imidodicarbonimidic diamide, N-phenyl-",461.85,1,N=C(N)NC(=N)Nc1ccccc1,le15,0,0,0,0,randonly selected as training point or test point
"Benzamide, N,N-diethyl-",398.65,1,CCN(CC)C(=O)c1ccccc1,le15,0,0,0,0,randonly selected as training point or test point
N-phenyl-N-propylacetamide,382.55,1,CCCN(C(C)=O)c1ccccc1,le15,0,0,0,0,randonly selected as training point or test point
"Benzaldehyde, p-(diethylamino)- (8CI)",383.35,1,CCN(CC)c1ccc(C=O)cc1,le15,0,0,0,0,randonly selected as training point or test point
"Morpholine, 3-methyl-2-phenyl-",385.85,1,CC1NCCOC1c1ccccc1,le15,0,0,0,0,randonly selected as training point or test point
"Benzamide, N-butyl-",474.75,1,CCCCNC(=O)c1ccccc1,le15,0,0,0,0,randonly selected as training point or test point
3-Phenylpropyl isothiocyanate,408.25,1,S=C=NCCCc1ccccc1,le15,0,0,0,0,randonly selected as training point or test point
"1,3,5-Triazine-2,4,6(1H,3H,5H)-trithione",373.65,1,S=c1[nH]c(=S)[nH]c(=S)[nH]1,le15,0,0,0,0,randonly selected as training point or test point
"N,N-dipropylaniline",375.35,1,CCCN(CCC)c1ccccc1,le15,0,0,0,0,randonly selected as training point or test point
"Benzenemethanamine, N-butyl-alpha-methyl- (9CI)",364.35,1,CCCCNC(C)c1ccccc1,le15,0,0,0,0,randonly selected as training point or test point
"Benzenamine, 2,6-bis(1-methylethyl)-",481.35,1,CC(C)c1cccc(C(C)C)c1N,le15,0,0,0,0,randonly selected as training point or test point
4-hexylaniline,394.512,1,CCCCCCc1ccc(N)cc1,le15,0,0,0,0,randonly selected as training point or test point
"Carbamodithioic acid, diethyl-, ethyl ester",365.25,1,CCSC(=S)N(CC)CC,le15,0,0,0,1,randonly selected as training point or test point
"methyl 2,2,2-trichloroacetate",345.15,1,COC(=O)C(Cl)(Cl)Cl,le15,0,0,0,0,randonly selected as training point or test point
"Propanoic acid, 2,2,3-trichloro-",361.95,1,O=C(O)C(Cl)(Cl)CCl,le15,0,0,0,1,randonly selected as training point or test point
"2-Propanol, 1,1,1-trichloro-2-methyl-",334.95,1,CC(C)(O)C(Cl)(Cl)Cl,le15,0,0,0,0,randonly selected as training point or test point
4-chloro-2-methylquinoline,386.15,1,Cc1cc(Cl)c2ccccc2n1,le15,0,0,0,0,randonly selected as training point or test point
"Succinimide, N-bromo- (8CI)",360.85,1,O=C1CCC(=O)N1Br,le15,0,0,0,0,randonly selected as training point or test point
"Phenol, 2-amino-4,6-dichloro-",400.25,1,Nc1cc(Cl)cc(Cl)c1O,le15,0,0,0,0,randonly selected as training point or test point
"methyl 2,2,3,3,3-pentafluoropropanoate",278.75,1,COC(=O)C(F)(F)C(F)(F)F,le15,0,0,0,0,randonly selected as training point or test point
"2,3,5,6-Tetrafluorobenzaldehyde",347.05,1,O=Cc1c(F)c(F)cc(F)c1F,le15,0,0,0,0,randonly selected as training point or test point
"1,2,4,5-tetrafluoro-3,6-dimethylbenzene",320.35,1,Cc1c(F)c(F)c(C)c(F)c1F,le15,0,0,0,0,randonly selected as training point or test point
ethyl trifluoromethanesulfonate,308.75,1,CCOS(=O)(=O)C(F)(F)F,le15,0,0,0,0,randonly selected as training point or test point
"1H-Indene-1,3(2H)-dione, 2,2-dihydroxy-",512.85,1,O=C1c2ccccc2C(=O)C1(O)O,le15,0,0,0,0,randonly selected as training point or test point
ethyl 2-oxo-2-phenylacetate,386.15,1,CCOC(=O)C(=O)c1ccccc1,le15,0,0,0,0,randonly selected as training point or test point
"1,3-Benzodioxole-5-methanol, alpha-ethenyl-",408.35,1,C=CC(O)c1ccc2c(c1)OCO2,le15,0,0,0,0,randonly selected as training point or test point
"1,3-Benzodioxole, 5-(oxiranylmethyl)- (9CI)",367.15,1,c1cc2c(cc1CC1CO1)OCO2,le15,0,0,0,0,randonly selected as training point or test point
"Propanoic acid, 3,3'-thiobis-",401.15,1,O=C(O)CCSCCC(=O)O,le15,0,0,0,1,randonly selected as training point or test point
2-phenylethynylbenzene,399.193,1,C(#Cc1ccccc1)c1ccccc1,le15,0,0,0,0,randonly selected as training point or test point
"Benzene, 1,2-dimethoxy-4-(2-propenyl)-",390.15,1,C=CCc1ccc(OC)c(OC)c1,le15,0,0,0,0,randonly selected as training point or test point
"Phenol, 2-ethoxy-5-(1-propenyl)-",438.35,1,CC=Cc1ccc(OCC)c(O)c1,le15,0,0,0,0,randonly selected as training point or test point
"Propanoic acid, 2-methyl-, phenylmethyl ester",368.65,1,CC(C)C(=O)OCc1ccccc1,le15,0,0,0,1,randonly selected as training point or test point
"Propanoic acid, 2-methyl-, 4-methylphenyl ester",366.95,1,Cc1ccc(OC(=O)C(C)C)cc1,le15,0,0,0,1,randonly selected as training point or test point
"2-Butanone, 4-(p-methoxyphenyl)- (6CI,7CI,8CI)",385.15,1,COc1ccc(CCC(C)=O)cc1,le15,0,0,0,0,randonly selected as training point or test point
"Benzenemethanol, alpha-methyl-, propanoate",379.15,1,CCC(=O)OC(C)c1ccccc1,le15,0,0,0,0,randonly selected as training point or test point
"Benzoic acid, isobutyl ester (6CI,7CI,8CI)",374.55,1,CC(C)COC(=O)c1ccccc1,le15,0,0,0,1,randonly selected as training point or test point
"Propanoic acid, 2-phenylethyl ester",367.55,1,CCC(=O)OCCc1ccccc1,le15,0,0,0,1,randonly selected as training point or test point
"Benzoic acid, butyl ester",380.15,1,CCCCOC(=O)c1ccccc1,le15,0,0,0,1,randonly selected as training point or test point
"4-methyl-4-phenyl-1,3-dioxane",386.95,1,CC1(c2ccccc2)CCOCO1,le15,0,0,0,0,randonly selected as training point or test point
ethyl 3-phenylpropanoate,381.15,1,CCOC(=O)CCc1ccccc1,le15,0,0,0,0,randonly selected as training point or test point
"Acetic acid, alpha-methyl-phenethyl ester",376.15,1,CC(=O)OC(C)Cc1ccccc1,le15,0,0,0,1,randonly selected as training point or test point
methyl 2-phenylbutanoate,366.75,1,CCC(C(=O)OC)c1ccccc1,le15,0,0,0,0,randonly selected as training point or test point
"Benzene, (3,3-dimethoxy-1-propenyl)-",372.55,1,COC(C=Cc1ccccc1)OC,le15,0,0,0,0,randonly selected as training point or test point
"Benzaldehyde, 4-butoxy-",396.95,1,CCCCOc1ccc(C=O)cc1,le15,0,0,0,0,randonly selected as training point or test point
"2-Propenoic acid, bicyclo(2.2.1)hept-5-en-2-ylmethyl ester",395.55,1,C=CC(=O)OCC1CC2C=CC1C2,le15,0,0,0,1,randonly selected as training point or test point
"Benzoic acid, 4-(1,1-dimethylethyl)-",408.05,1,CC(C)(C)c1ccc(C(=O)O)cc1,le15,0,0,0,1,randonly selected as training point or test point
"Butanoic acid, phenylmethyl ester",421.722,1,CCCC(=O)OCc1ccccc1,le15,0,0,0,1,randonly selected as training point or test point
"Benzeneacetic acid, 1-methylethyl ester",370.65,1,CC(C)OC(=O)Cc1ccccc1,le15,0,0,0,1,randonly selected as training point or test point
"N,N-diethylpyridine-3-carboxamide",414.25,1,CCN(CC)C(=O)c1cccnc1,le15,0,0,0,0,randonly selected as training point or test point
"1,2-Bis(2-methoxyethoxy)ethane",386.15,1,COCCOCCOCCOC,le15,0,0,0,0,randonly selected as training point or test point
"Ethanol, 2-(2-(2-ethoxyethoxy)ethoxy)-",405.15,1,CCOCCOCCOCCO,le15,0,0,0,0,randonly selected as training point or test point
"Benzenamine, N,N-diethyl-4-nitroso-",402.55,1,CCN(CC)c1ccc(N=O)cc1,le15,0,0,0,0,randonly selected as training point or test point
"Phenol, 5-methyl-2-pentyl- (9CI)",398.45,1,CCCCCc1ccc(C)cc1O,le15,0,0,0,0,randonly selected as training point or test point
"3,4-Xylenol, 6-tert-butyl-",388.85,1,Cc1cc(O)c(C(C)(C)C)cc1C,le15,0,0,0,0,randonly selected as training point or test point
2-(1-Cyclohexen-1-yl)cyclohexan-1-one,389.25,1,O=C1CCCCC1C1=CCCCC1,le15,0,0,0,0,randonly selected as training point or test point
"Phenol, 2-(1,1-dimethylethyl)-4,6-dimethyl-",384.85,1,Cc1cc(C)c(O)c(C(C)(C)C)c1,le15,0,0,0,0,randonly selected as training point or test point
"Phenol, 2,6-bis(1-methylethyl)-",380.65,1,CC(C)c1cccc(C(C)C)c1O,le15,0,0,0,0,randonly selected as training point or test point
Benzenehexanol,394.95,1,OCCCCCCc1ccccc1,le15,0,0,0,0,randonly selected as training point or test point
"Phenol, 2-hexyl- (9CI)",413.05,1,CCCCCCc1ccccc1O,le15,0,0,0,0,randonly selected as training point or test point
"Benzenemethanol, alpha,alpha-dimethyl-4-(1-methylethyl)- (9CI)",378.65,1,CC(C)c1ccc(C(C)(C)O)cc1,le15,0,0,0,0,randonly selected as training point or test point
"4-tert-butyl-2,5-dimethylphenol",390.95,1,Cc1cc(C(C)(C)C)c(C)cc1O,le15,0,0,0,0,randonly selected as training point or test point
3-methylbutoxymethylbenzene,366.85,1,CC(C)CCOCc1ccccc1,le15,0,0,0,0,randonly selected as training point or test point
"13-Oxabicyclo(10.1.0)trideca-4,8-diene",386.75,1,C1=CCCC2OC2CCC=CCC1,le15,0,0,0,0,randonly selected as training point or test point
Butyl sulfone (8CI),412.75,1,CCCCS(=O)(=O)CCCC,le15,0,0,0,0,randonly selected as training point or test point
"1,3,6-Thiadiazepine-2,7-dithione, tetrahydro-",395.05,1,S=C1NCCNC(=S)S1,le15,0,0,0,0,randonly selected as training point or test point
2-methyl-1-(2-methylpropylsulfonyl)propane,383.35,1,CC(C)CS(=O)(=O)CC(C)C,le15,0,0,0,0,randonly selected as training point or test point
"Disulfide, bis(1,1-dimethylethyl)",335.35,1,CC(C)(C)SSC(C)(C)C,le15,0,0,0,0,randonly selected as training point or test point
1-(butyldisulfanyl)butane,366.45,1,CCCCSSCCCC,le15,0,0,0,0,randonly selected as training point or test point
"Octane-1,8-dithiol",374.256,1,SCCCCCCCCS,le15,0,0,0,0,randonly selected as training point or test point
Ditertbutyldisulfide,340.0,1,CC(C)(C)SSC(C)(C)C,le15,0,0,0,0,randonly selected as training point or test point
dimethyl (E)-2-chlorobut-2-enedioate,364.65,1,COC(=O)/C=C(/Cl)C(=O)OC,le15,0,0,0,0,randonly selected as training point or test point
"Phosphonous dichloride, phenyl-",362.45,1,ClP(Cl)c1ccccc1,le15,0,0,0,0,randonly selected as training point or test point
"1,2-Benzenediol, 4,5-dichloro-",409.75,1,Oc1cc(Cl)c(Cl)cc1O,le15,0,0,0,0,randonly selected as training point or test point
"1,2-Benzenediol, 3,4-dichloro-",392.45,1,Oc1ccc(Cl)c(Cl)c1O,le15,0,0,0,0,randonly selected as training point or test point
"Hydroquinone, 2,5-dichloro- (8CI)",392.65,1,Oc1cc(Cl)c(O)cc1Cl,le15,0,0,0,0,randonly selected as training point or test point
"Phosphorodichloridothioic acid, O-ethyl ester",336.15,1,CCOP(=S)(Cl)Cl,le15,0,0,0,1,randonly selected as training point or test point
"2-Propenoic acid, 2-bromoethyl ester (9CI)",340.75,1,C=CC(=O)OCCBr,le15,0,0,0,1,randonly selected as training point or test point
"2-Butanone, 1-bromo-3,3-dimethyl-",348.15,1,CC(C)(C)C(=O)CBr,le15,0,0,0,0,randonly selected as training point or test point
6-bromohexan-2-one,351.35,1,CC(=O)CCCCBr,le15,0,0,0,0,randonly selected as training point or test point
"2H-Pyran, 2-(bromomethyl)tetrahydro-",338.15,1,BrCC1CCCCO1,le15,0,0,0,0,randonly selected as training point or test point
"Heptane, 1-bromo-",333.75,1,CCCCCCCBr,le15,0,0,0,0,randonly selected as training point or test point