compound,flashpoint,pure substance,smiles,source,is_silicon,is_metallic,is_tin,is_acid,data type
4-methylbenzenesulfonic acid,457.15,1,CC1=CC=C(C=C1)S(=O)(=O)O,pubchem,0,0,0,1,randonly selected as training point or test point
4-nitrobenzoic acid,475.15,1,C1=CC(=CC=C1C(=O)O)[N+](=O)[O-],pubchem,0,0,0,1,randonly selected as training point or test point
ethyl methanesulfonate,373.15,1,CCOS(=O)(=O)C,pubchem,0,0,0,0,randonly selected as training point or test point
aniline,343.15,1,C1=CC=C(C=C1)N,pubchem,0,0,0,0,randonly selected as training point or test point
"N,N-dimethylnitrous amide",334.15,1,CN(C)N=O,pubchem,0,0,0,0,randonly selected as training point or test point
diethyl sulfate,377.15,1,CCOS(=O)(=O)OCC,pubchem,0,0,0,0,randonly selected as training point or test point
hexanal,305.15,1,CCCCCC=O,pubchem,0,0,0,0,randonly selected as training point or test point
2-bromoacetic acid,386.15,1,C(C(=O)O)Br,pubchem,0,0,0,1,randonly selected as training point or test point
"N,N-dimethylformamide",340.15,1,CN(C)C=O,pubchem,0,0,0,0,randonly selected as training point or test point
4-methylbenzenesulfonamide,475.15,1,CC1=CC=C(C=C1)S(=O)(=O)N,pubchem,0,0,0,0,randonly selected as training point or test point
pentan-1-ol,306.15,1,CCCCCO,pubchem,0,0,0,0,randonly selected as training point or test point
4-chlorobenzoic acid,511.15,1,C1=CC(=CC=C1C(=O)O)Cl,pubchem,0,0,0,1,randonly selected as training point or test point
"1-N,4-N-diphenylbenzene-1,4-diamine",477.15,1,C1=CC=C(C=C1)NC2=CC=C(C=C2)NC3=CC=CC=C3,pubchem,0,0,0,0,randonly selected as training point or test point
ethane,138.15,1,CC,pubchem,0,0,0,0,randonly selected as training point or test point
ethene,137.15,1,C=C,pubchem,0,0,0,0,randonly selected as training point or test point
acetylene,255.15,1,C#C,pubchem,0,0,0,0,randonly selected as training point or test point
chloromethane,228.15,1,CCl,pubchem,0,0,0,0,randonly selected as training point or test point
methanamine,273.15,1,CN,pubchem,0,0,0,0,randonly selected as training point or test point
bromoethane,250.15,1,CCBr,pubchem,0,0,0,0,randonly selected as training point or test point
propane,169.15,1,CCC,pubchem,0,0,0,0,randonly selected as training point or test point
chloroethane,223.15,1,CCCl,pubchem,0,0,0,0,randonly selected as training point or test point
chloroethene,194.15,1,C=CCl,pubchem,0,0,0,0,randonly selected as training point or test point
iodoethane,334.15,1,CCI,pubchem,0,0,0,0,randonly selected as training point or test point
acetonitrile,279.15,1,CC#N,pubchem,0,0,0,0,randonly selected as training point or test point
methanedithione,243.15,1,C(=S)=S,pubchem,0,0,0,0,randonly selected as training point or test point
oxirane,255.15,1,C1CO1,pubchem,0,0,0,0,randonly selected as training point or test point
2-bromopropane,344.15,1,CC(C)Br,pubchem,0,0,0,0,randonly selected as training point or test point
2-methylpropane,190.15,1,CC(C)C,pubchem,0,0,0,0,randonly selected as training point or test point
2-chloropropane,241.15,1,CC(C)Cl,pubchem,0,0,0,0,randonly selected as training point or test point
propan-2-amine,236.15,1,CC(C)N,pubchem,0,0,0,0,randonly selected as training point or test point
propane-2-thiol,239.15,1,CC(C)S,pubchem,0,0,0,0,randonly selected as training point or test point
"1,1-dichloroethane",267.15,1,CC(Cl)Cl,pubchem,0,0,0,0,randonly selected as training point or test point
"1,1-dichloroethene",263.15,1,C=C(Cl)Cl,pubchem,0,0,0,0,randonly selected as training point or test point
acetyl chloride,277.15,1,CC(=O)Cl,pubchem,0,0,0,0,randonly selected as training point or test point
nitromethane,308.15,1,C[N+](=O)[O-],pubchem,0,0,0,0,randonly selected as training point or test point
2-methylaziridine,269.15,1,CC1CN1,pubchem,0,0,0,0,randonly selected as training point or test point
2-methyloxirane,236.15,1,CC1CO1,pubchem,0,0,0,0,randonly selected as training point or test point
2-methylpropan-2-amine,283.15,1,CC(C)(C)N,pubchem,0,0,0,0,randonly selected as training point or test point
2-methylpropan-2-ol,284.15,1,CC(C)(C)O,pubchem,0,0,0,0,randonly selected as training point or test point
tetramethylplumbane,311.15,1,C[Pb](C)(C)C,pubchem,0,1,0,0,randonly selected as training point or test point
methanesulfonic acid,462.15,1,CS(=O)(=O)O,pubchem,0,0,0,1,randonly selected as training point or test point
tetramethylsilane,246.15,1,C[Si](C)(C)C,pubchem,1,1,0,0,randonly selected as training point or test point
chloro(trimethyl)silane,255.15,1,C[Si](C)(C)Cl,pubchem,1,1,0,0,randonly selected as training point or test point
dichloro(dimethyl)silane,264.15,1,C[Si](C)(Cl)Cl,pubchem,1,1,0,0,randonly selected as training point or test point
trichloro(methyl)silane,264.15,1,C[Si](Cl)(Cl)Cl,pubchem,1,1,0,0,randonly selected as training point or test point
"2,2-dimethylbutane",225.15,1,CCC(C)(C)C,pubchem,0,0,0,0,randonly selected as training point or test point
"2,2-dimethylpropan-1-ol",310.15,1,CC(C)(C)CO,pubchem,0,0,0,0,randonly selected as training point or test point
2-methylbutan-2-ol,292.15,1,CCC(C)(C)O,pubchem,0,0,0,0,randonly selected as training point or test point
2-hydroxy-2-methylpropanenitrile,347.15,1,CC(C)(C#N)O,pubchem,0,0,0,0,randonly selected as training point or test point
"2,2,2-trichloroacetaldehyde",348.15,1,C(=O)C(Cl)(Cl)Cl,pubchem,0,0,0,0,randonly selected as training point or test point
2-hydroperoxy-2-methylpropane,300.15,1,CC(C)(C)OO,pubchem,0,0,0,0,randonly selected as training point or test point
trichloro(ethenyl)silane,294.15,1,C=C[Si](Cl)(Cl)Cl,pubchem,1,1,0,0,randonly selected as training point or test point
"3,3-dimethylbutan-2-one",278.15,1,CC(=O)C(C)(C)C,pubchem,0,0,0,0,randonly selected as training point or test point
"2,2-dimethylpropanoic acid",337.15,1,CC(C)(C)C(=O)O,pubchem,0,0,0,1,randonly selected as training point or test point
"(1,7,7-trimethyl-2-bicyclo[2.2.1]heptanyl) acetate",361.15,1,CC(=O)OC1CC2CCC1(C2(C)C)C,pubchem,0,0,0,0,randonly selected as training point or test point
"(3-hydroxy-2,2,4-trimethylpentyl) 2-methylpropanoate",393.15,1,CC(C)C(C(C)(C)COC(=O)C(C)C)O,pubchem,0,0,0,0,randonly selected as training point or test point
"tricyclo[5.2.1.02,6]deca-3,8-diene",305.15,1,C1C=CC2C1C3CC2C=C3,pubchem,0,0,0,0,randonly selected as training point or test point
1-ethenylsulfonylethene,376.15,1,C=CS(=O)(=O)C=C,pubchem,0,0,0,0,randonly selected as training point or test point
dimethyl sulfate,356.15,1,COS(=O)(=O)OC,pubchem,0,0,0,0,randonly selected as training point or test point
"2,5-dihydrothiophene 1,1-dioxide",386.15,1,C1C=CCS1(=O)=O,pubchem,0,0,0,0,randonly selected as training point or test point
[dimethylamino(ethoxy)phosphoryl]formonitrile,351.15,1,CCOP(=O)(C#N)N(C)C,pubchem,0,0,0,0,randonly selected as training point or test point
"tributyl 2-acetyloxypropane-1,2,3-tricarboxylate",386.15,1,CCCCOC(=O)CC(CC(=O)OCCCC)(C(=O)OCCCC)OC(=O)C,pubchem,0,0,0,0,randonly selected as training point or test point
"triethyl 2-hydroxypropane-1,2,3-tricarboxylate",428.15,1,CCOC(=O)CC(CC(=O)OCC)(C(=O)OCC)O,pubchem,0,0,0,0,randonly selected as training point or test point
"2-ethyl-2-(hydroxymethyl)propane-1,3-diol",445.15,1,CCC(CO)(CO)CO,pubchem,0,0,0,0,randonly selected as training point or test point
tetraethylplumbane,366.15,1,CC[Pb](CC)(CC)CC,pubchem,0,1,0,0,randonly selected as training point or test point
tetraethyl silicate,310.15,1,CCO[Si](OCC)(OCC)OCC,pubchem,1,1,0,0,randonly selected as training point or test point
1-(1-hydroperoxycyclohexyl)peroxycyclohexan-1-ol,430.15,1,C1CCC(CC1)(O)OOC2(CCCCC2)OO,pubchem,0,0,0,0,randonly selected as training point or test point
tris(2-methylphenyl) phosphate,498.15,1,CC1=CC=CC=C1OP(=O)(OC2=CC=CC=C2C)OC3=CC=CC=C3C,pubchem,0,0,0,0,randonly selected as training point or test point
tris(4-methylphenyl) phosphate,483.15,1,CC1=CC=C(C=C1)OP(=O)(OC2=CC=C(C=C2)C)OC3=CC=C(C=C3)C,pubchem,0,0,0,0,randonly selected as training point or test point
1-[ethoxy(ethyl)phosphoryl]oxyethane,377.15,1,CCOP(=O)(CC)OCC,pubchem,0,0,0,0,randonly selected as training point or test point
triethyl phosphate,389.15,1,CCOP(=O)(OCC)OCC,pubchem,0,0,0,0,randonly selected as training point or test point
tris(2-ethylhexyl) phosphate,425.15,1,CCCCC(CC)COP(=O)(OCC(CC)CCCC)OCC(CC)CCCC,pubchem,0,0,0,0,randonly selected as training point or test point
1-[butoxy(butyl)phosphoryl]oxybutane,427.15,1,CCCCOP(=O)(CCCC)OCCCC,pubchem,0,0,0,0,randonly selected as training point or test point
tris(2-butoxyethyl) phosphate,497.15,1,CCCCOCCOP(=O)(OCCOCCCC)OCCOCCCC,pubchem,0,0,0,0,randonly selected as training point or test point
"3,5,5-trimethylcyclohex-2-en-1-one",357.15,1,CC1=CC(=O)CC(C1)(C)C,pubchem,0,0,0,0,randonly selected as training point or test point
"2,5-bis(tert-butylperoxy)-2,5-dimethylhexane",358.15,1,CC(C)(C)OOC(C)(C)CCC(C)(C)OOC(C)(C)C,pubchem,0,0,0,0,randonly selected as training point or test point
"3,7-dimethylocta-1,6-dien-3-ol",351.15,1,CC(=CCCC(C)(C=C)O)C,pubchem,0,0,0,0,randonly selected as training point or test point
2-bromobutane,294.15,1,CCC(C)Br,pubchem,0,0,0,0,randonly selected as training point or test point
2-methylbutane,216.15,1,CCC(C)C,pubchem,0,0,0,0,randonly selected as training point or test point
"2-methylbuta-1,3-diene",219.15,1,CC(=C)C=C,pubchem,0,0,0,0,randonly selected as training point or test point
2-methylpropan-1-amine,264.15,1,CC(C)CN,pubchem,0,0,0,0,randonly selected as training point or test point
2-methylpropanenitrile,281.15,1,CC(C)C#N,pubchem,0,0,0,0,randonly selected as training point or test point
2-methylpropan-1-ol,301.15,1,CC(C)CO,pubchem,0,0,0,0,randonly selected as training point or test point
2-methylpropanal,233.15,1,CC(C)C=O,pubchem,0,0,0,0,randonly selected as training point or test point
2-methylprop-2-enal,275.15,1,CC(=C)C=O,pubchem,0,0,0,0,randonly selected as training point or test point
"1,2-dichloropropane",289.15,1,CC(CCl)Cl,pubchem,0,0,0,0,randonly selected as training point or test point
"2,3-dichloroprop-1-ene",283.15,1,C=C(CCl)Cl,pubchem,0,0,0,0,randonly selected as training point or test point
2-chloropropan-1-ol,325.15,1,CC(CO)Cl,pubchem,0,0,0,0,randonly selected as training point or test point
"propane-1,2-diamine",306.15,1,CC(CN)N,pubchem,0,0,0,0,randonly selected as training point or test point
butan-2-ol,297.15,1,CCC(C)O,pubchem,0,0,0,0,randonly selected as training point or test point
butan-2-one,270.15,1,CCC(=O)C,pubchem,0,0,0,0,randonly selected as training point or test point
but-3-en-2-one,266.15,1,CC(=O)C=C,pubchem,0,0,0,0,randonly selected as training point or test point
1-chloropropan-2-one,313.15,1,CC(=O)CCl,pubchem,0,0,0,0,randonly selected as training point or test point
2-hydroxypropanenitrile,350.15,1,CC(C#N)O,pubchem,0,0,0,0,randonly selected as training point or test point
"1,1-dichloropropane",294.15,1,CCC(Cl)Cl,pubchem,0,0,0,0,randonly selected as training point or test point
"2,2-dichloroacetaldehyde",333.15,1,C(=O)C(Cl)Cl,pubchem,0,0,0,0,randonly selected as training point or test point
2-chloroacetyl chloride,373.15,1,C(C(=O)Cl)Cl,pubchem,0,0,0,0,randonly selected as training point or test point
prop-2-enamide,411.15,1,C=CC(=O)N,pubchem,0,0,0,0,randonly selected as training point or test point
2-chloroacetamide,443.15,1,C(C(=O)N)Cl,pubchem,0,0,0,0,randonly selected as training point or test point
prop-2-enoic acid,327.15,1,C=CC(=O)O,pubchem,0,0,0,1,randonly selected as training point or test point
N-methylacetamide,381.15,1,CC(=O)NC,pubchem,0,0,0,0,randonly selected as training point or test point
methyl acetate,263.15,1,CC(=O)OC,pubchem,0,0,0,0,randonly selected as training point or test point
ethaneperoxoic acid,314.15,1,CC(=O)OO,pubchem,0,0,0,1,randonly selected as training point or test point
methyl carbonochloridate,285.15,1,COC(=O)Cl,pubchem,0,0,0,0,randonly selected as training point or test point
1-nitroethane,314.15,1,CC[N+](=O)[O-],pubchem,0,0,0,0,randonly selected as training point or test point
"1,1,2,2-tetrabromoethane",608.15,1,C(C(Br)Br)(Br)Br,pubchem,0,0,0,0,randonly selected as training point or test point
"2,3-dimethylbutane",244.15,1,CC(C)C(C)C,pubchem,0,0,0,0,randonly selected as training point or test point
2-methylpropanoic acid,329.15,1,CC(C)C(=O)O,pubchem,0,0,0,1,randonly selected as training point or test point
"2,2-dichloroacetyl chloride",339.15,1,C(C(=O)Cl)(Cl)Cl,pubchem,0,0,0,0,randonly selected as training point or test point
"1-chloro-1,2,2-trifluoroethene",246.15,1,C(=C(F)Cl)(F)F,pubchem,0,0,0,0,randonly selected as training point or test point
"N,N-dimethylcarbamoyl chloride",341.15,1,CN(C)C(=O)Cl,pubchem,0,0,0,0,randonly selected as training point or test point
"2,2-dimethyl-3-methylidenebicyclo[2.2.1]heptane",306.15,1,CC1(C2CCC(C2)C1=C)C,pubchem,0,0,0,0,randonly selected as training point or test point
4-[2-(4-hydroxyphenyl)propan-2-yl]phenol,352.15,1,CC(C)(C1=CC=C(C=C1)O)C2=CC=C(C=C2)O,pubchem,0,0,0,0,randonly selected as training point or test point
dichloro(diphenyl)silane,415.15,1,C1=CC=C(C=C1)[Si](C2=CC=CC=C2)(Cl)Cl,pubchem,1,1,0,0,randonly selected as training point or test point
2-hydroperoxypropan-2-ylbenzene,330.15,1,CC(C)(C1=CC=CC=C1)OO,pubchem,0,0,0,0,randonly selected as training point or test point
ethyl 4-methylbenzenesulfonate,431.15,1,CCOS(=O)(=O)C1=CC=C(C=C1)C,pubchem,0,0,0,0,randonly selected as training point or test point
4-(2-methylbutan-2-yl)phenol,384.15,1,CCC(C)(C)C1=CC=C(C=C1)O,pubchem,0,0,0,0,randonly selected as training point or test point
1-(2-hydroperoxypropan-2-yl)-4-methylcyclohexane,326.15,1,CC1CCC(CC1)C(C)(C)OO,pubchem,0,0,0,0,randonly selected as training point or test point
methyl 4-methylbenzenesulfonate,425.15,1,CC1=CC=C(C=C1)S(=O)(=O)OC,pubchem,0,0,0,0,randonly selected as training point or test point
4-(2-aminopropan-2-yl)-1-methylcyclohexan-1-amine,366.15,1,CC1(CCC(CC1)C(C)(C)N)N,pubchem,0,0,0,0,randonly selected as training point or test point
"2,6,6-trimethylbicyclo[3.1.1]hept-2-ene",306.15,1,CC1=CCC2CC1C2(C)C,pubchem,0,0,0,0,randonly selected as training point or test point
methyl 2-methylprop-2-enoate,283.15,1,CC(=C)C(=O)OC,pubchem,0,0,0,0,randonly selected as training point or test point
"1,3-dimethyl-2-nitrobenzene",361.15,1,CC1=C(C(=CC=C1)C)[N+](=O)[O-],pubchem,0,0,0,0,randonly selected as training point or test point
"3-oxatricyclo[7.3.1.05,13]trideca-1(12),5,7,9(13),10-pentaene-2,4-dione",545.15,1,C1=CC2=C3C(=C1)C(=O)OC(=O)C3=CC=C2,pubchem,0,0,0,0,randonly selected as training point or test point
"1,2,3,4,5-pentachloro-6-nitrobenzene",400.15,1,C1(=C(C(=C(C(=C1Cl)Cl)Cl)Cl)Cl)[N+](=O)[O-],pubchem,0,0,0,0,randonly selected as training point or test point
"1,2-dihydroacenaphthylene",398.15,1,C1CC2=CC=CC3=C2C1=CC=C3,pubchem,0,0,0,0,randonly selected as training point or test point
"2,6-dichlorobenzaldehyde",408.15,1,C1=CC(=C(C(=C1)Cl)C=O)Cl,pubchem,0,0,0,0,randonly selected as training point or test point
"1,2-dimethyl-3-nitrobenzene",380.15,1,CC1=C(C(=CC=C1)[N+](=O)[O-])C,pubchem,0,0,0,0,randonly selected as training point or test point
"naphthalene-1,5-diol",525.15,1,C1=CC2=C(C=CC=C2O)C(=C1)O,pubchem,0,0,0,0,randonly selected as training point or test point
"1,2-diphenylbenzene",436.15,1,C1=CC=C(C=C1)C2=CC=CC=C2C3=CC=CC=C3,pubchem,0,0,0,0,randonly selected as training point or test point
"dicyclohexyl benzene-1,2-dicarboxylate",480.15,1,C1CCC(CC1)OC(=O)C2=CC=CC=C2C(=O)OC3CCCCC3,pubchem,0,0,0,0,randonly selected as training point or test point
"anthracene-9,10-dione",458.15,1,C1=CC=C2C(=C1)C(=O)C3=CC=CC=C3C2=O,pubchem,0,0,0,0,randonly selected as training point or test point
"diethyl benzene-1,2-dicarboxylate",413.15,1,CCOC(=O)C1=CC=CC=C1C(=O)OCC,pubchem,0,0,0,0,randonly selected as training point or test point
"bis(2-methylpropyl) benzene-1,2-dicarboxylate",469.15,1,CC(C)COC(=O)C1=CC=CC=C1C(=O)OCC(C)C,pubchem,0,0,0,0,randonly selected as training point or test point
"dihexyl benzene-1,2-dicarboxylate",450.15,1,CCCCCCOC(=O)C1=CC=CC=C1C(=O)OCCCCCC,pubchem,0,0,0,0,randonly selected as training point or test point
"dinonyl benzene-1,2-dicarboxylate",489.15,1,CCCCCCCCCOC(=O)C1=CC=CC=C1C(=O)OCCCCCCCCC,pubchem,0,0,0,0,randonly selected as training point or test point
"didecyl benzene-1,2-dicarboxylate",505.15,1,CCCCCCCCCCOC(=O)C1=CC=CC=C1C(=O)OCCCCCCCCCC,pubchem,0,0,0,0,randonly selected as training point or test point
benzo[f]quinoline,439.15,1,C1=CC=C2C(=C1)C=CC3=C2C=CC=N3,pubchem,0,0,0,0,randonly selected as training point or test point
"3a,4,7,7a-tetrahydro-2-benzofuran-1,3-dione",430.15,1,C1C=CCC2C1C(=O)OC2=O,pubchem,0,0,0,0,randonly selected as training point or test point
"2-benzofuran-1,3-dione",425.15,1,C1=CC=C2C(=C1)C(=O)OC2=O,pubchem,0,0,0,0,randonly selected as training point or test point
"2-O-(2-butoxy-2-oxoethyl) 1-O-butyl benzene-1,2-dicarboxylate",472.15,1,CCCCOC(=O)COC(=O)C1=CC=CC=C1C(=O)OCCCC,pubchem,0,0,0,0,randonly selected as training point or test point
methyl 2-(methylamino)benzoate,364.15,1,CNC1=CC=CC=C1C(=O)OC,pubchem,0,0,0,0,randonly selected as training point or test point
"1,3-diethyl-1,3-diphenylurea",423.15,1,CCN(C1=CC=CC=C1)C(=O)N(CC)C2=CC=CC=C2,pubchem,0,0,0,0,randonly selected as training point or test point
1-nitro-2-phenylbenzene,416.15,1,C1=CC=C(C=C1)C2=CC=CC=C2[N+](=O)[O-],pubchem,0,0,0,0,randonly selected as training point or test point
1-nitronaphthalene,437.15,1,C1=CC=C2C(=C1)C=CC=C2[N+](=O)[O-],pubchem,0,0,0,0,randonly selected as training point or test point
9H-fluorene,424.15,1,C1C2=CC=CC=C2C3=CC=CC=C31,pubchem,0,0,0,0,randonly selected as training point or test point
9H-carbazole,493.15,1,C1=CC=C2C(=C1)C3=CC=CC=C3N2,pubchem,0,0,0,0,randonly selected as training point or test point
"(1R,9S)-4,11,11-trimethyl-8-methylidenebicyclo[7.2.0]undec-4-ene",374.15,1,CC1=CCCC(=C)C2CC(C2CC1)(C)C,pubchem,0,0,0,0,randonly selected as training point or test point
"2,3-dimethylaniline",370.15,1,CC1=C(C(=CC=C1)N)C,pubchem,0,0,0,0,randonly selected as training point or test point
"1,2,3-trichlorobenzene",385.15,1,C1=CC(=C(C(=C1)Cl)Cl)Cl,pubchem,0,0,0,0,randonly selected as training point or test point
"2,6-dimethylaniline",364.15,1,CC1=C(C(=CC=C1)C)N,pubchem,0,0,0,0,randonly selected as training point or test point
"1,1,2,3,4,4-hexachlorobuta-1,3-diene",363.15,1,C(=C(Cl)Cl)(C(=C(Cl)Cl)Cl)Cl,pubchem,0,0,0,0,randonly selected as training point or test point
"2,4,6-trichlorophenol",372.15,1,C1=C(C=C(C(=C1Cl)O)Cl)Cl,pubchem,0,0,0,0,randonly selected as training point or test point
1-ethenylpyrrolidin-2-one,366.15,1,C=CN1CCCC1=O,pubchem,0,0,0,0,randonly selected as training point or test point
2-tert-butylphenol,383.15,1,CC(C)(C)C1=CC=CC=C1O,pubchem,0,0,0,0,randonly selected as training point or test point
2-propan-2-ylphenol,377.15,1,CC(C)C1=CC=CC=C1O,pubchem,0,0,0,0,randonly selected as training point or test point
1-methyl-2-nitrobenzene,379.15,1,CC1=CC=CC=C1[N+](=O)[O-],pubchem,0,0,0,0,randonly selected as training point or test point
1-chloro-2-nitrobenzene,400.15,1,C1=CC=C(C(=C1)[N+](=O)[O-])Cl,pubchem,0,0,0,0,randonly selected as training point or test point
2-nitroaniline,441.15,1,C1=CC=C(C(=C1)N)[N+](=O)[O-],pubchem,0,0,0,0,randonly selected as training point or test point
2-nitrophenol,381.15,1,C1=CC=C(C(=C1)[N+](=O)[O-])O,pubchem,0,0,0,0,randonly selected as training point or test point
"2,4,6-trinitrophenol",423.15,1,C1=C(C=C(C(=C1[N+](=O)[O-])O)[N+](=O)[O-])[N+](=O)[O-],pubchem,0,0,0,0,randonly selected as training point or test point
"1,4-dichloro-2-nitrobenzene",408.15,1,C1=CC(=C(C=C1Cl)[N+](=O)[O-])Cl,pubchem,0,0,0,0,randonly selected as training point or test point
4-methyl-2-nitroaniline,430.15,1,CC1=CC(=C(C=C1)N)[N+](=O)[O-],pubchem,0,0,0,0,randonly selected as training point or test point
2-butan-2-ylphenol,385.15,1,CCC(C)C1=CC=CC=C1O,pubchem,0,0,0,0,randonly selected as training point or test point
5-methyl-2-propan-2-ylphenol,383.15,1,CC1=CC(=C(C=C1)C(C)C)O,pubchem,0,0,0,0,randonly selected as training point or test point
"2,4-dimethyl-1-nitrobenzene",380.15,1,CC1=CC(=C(C=C1)[N+](=O)[O-])C,pubchem,0,0,0,0,randonly selected as training point or test point