compound,flashpoint,pure substance,smiles,source,is_silicon,is_metallic,is_tin,is_acid,data type
5-methylhexan-2-one,309.15,1,CC(C)CCC(=O)C,pubchem,0,0,0,0,randonly selected as training point or test point
"hexane-2,5-dione",352.15,1,CC(=O)CCC(=O)C,pubchem,0,0,0,0,randonly selected as training point or test point
"N,N,N',N'-tetramethylethane-1,2-diamine",283.15,1,CN(C)CCN(C)C,pubchem,0,0,0,0,randonly selected as training point or test point
2-methylpropyl acetate,290.15,1,CC(C)COC(=O)C,pubchem,0,0,0,0,randonly selected as training point or test point
acetyl ethaneperoxoate,318.15,1,CC(=O)OOC(=O)C,pubchem,0,0,0,0,randonly selected as training point or test point
N-[2-(octadecanoylamino)ethyl]octadecanamide,553.15,1,CCCCCCCCCCCCCCCCCC(=O)NCCNC(=O)CCCCCCCCCCCCCCCCC,pubchem,0,0,0,0,randonly selected as training point or test point
dihexyl hexanedioate,436.15,1,CCCCCCOC(=O)CCCCC(=O)OCCCCCC,pubchem,0,0,0,0,randonly selected as training point or test point
heptan-2-one,312.15,1,CCCCCC(=O)C,pubchem,0,0,0,0,randonly selected as training point or test point
2-methoxyethyl acetate,317.15,1,CC(=O)OCCOC,pubchem,0,0,0,0,randonly selected as training point or test point
hexane,250.15,1,CCCCCC,pubchem,0,0,0,0,randonly selected as training point or test point
"1,4-dichlorobutane",313.15,1,C(CCCl)CCl,pubchem,0,0,0,0,randonly selected as training point or test point
pentan-1-amine,280.15,1,CCCCCN,pubchem,0,0,0,0,randonly selected as training point or test point
pentanenitrile,314.15,1,CCCCC#N,pubchem,0,0,0,0,randonly selected as training point or test point
butanedinitrile,405.15,1,C(CC#N)C#N,pubchem,0,0,0,0,randonly selected as training point or test point
pentanal,285.15,1,CCCCC=O,pubchem,0,0,0,0,randonly selected as training point or test point
"butane-1,4-diol",392.15,1,C(CCO)CO,pubchem,0,0,0,0,randonly selected as training point or test point
"but-2-ene-1,4-diol",401.15,1,C(C=CCO)O,pubchem,0,0,0,0,randonly selected as training point or test point
"but-2-yne-1,4-diol",401.15,1,C(C#CCO)O,pubchem,0,0,0,0,randonly selected as training point or test point
pentane-1-thiol,291.15,1,CCCCCS,pubchem,0,0,0,0,randonly selected as training point or test point
N-methylbutan-1-amine,286.15,1,CCCCNC,pubchem,0,0,0,0,randonly selected as training point or test point
N-butylidenehydroxylamine,331.15,1,CCCC=NO,pubchem,0,0,0,0,randonly selected as training point or test point
"1,2-dimethoxyethane",273.15,1,COCCOC,pubchem,0,0,0,0,randonly selected as training point or test point
2-(ethylamino)ethanol,344.15,1,CCNCCO,pubchem,0,0,0,0,randonly selected as training point or test point
propyl formate,270.15,1,CCCOC=O,pubchem,0,0,0,0,randonly selected as training point or test point
1-chloro-2-ethenoxyethane,289.15,1,C=COCCCl,pubchem,0,0,0,0,randonly selected as training point or test point
2-ethoxyethanol,314.15,1,CCOCCO,pubchem,0,0,0,0,randonly selected as training point or test point
cyclohexane,253.15,1,C1CCCCC1,pubchem,0,0,0,0,randonly selected as training point or test point
cyclohexene,261.15,1,C1CCC=CC1,pubchem,0,0,0,0,randonly selected as training point or test point
"3,4-dihydro-2H-pyran",255.15,1,C1CC=COC1,pubchem,0,0,0,0,randonly selected as training point or test point
"1,3,5-trioxane",318.15,1,C1OCOCO1,pubchem,0,0,0,0,randonly selected as training point or test point
piperidine,276.15,1,C1CCNCC1,pubchem,0,0,0,0,randonly selected as training point or test point
morpholine,311.15,1,C1COCCN1,pubchem,0,0,0,0,randonly selected as training point or test point
2-methyl-N-(2-methylpropyl)propan-1-amine,302.15,1,CC(C)CNCC(C)C,pubchem,0,0,0,0,randonly selected as training point or test point
1-(2-hydroxypropylamino)propan-2-ol,399.15,1,CC(CNCC(C)O)O,pubchem,0,0,0,0,randonly selected as training point or test point
1-(2-hydroxypropoxy)propan-2-ol,411.15,1,CC(COCC(C)O)O,pubchem,0,0,0,0,randonly selected as training point or test point
octan-2-one,325.15,1,CCCCCCC(=O)C,pubchem,0,0,0,0,randonly selected as training point or test point
2-ethoxyethyl acetate,330.15,1,CCOCCOC(=O)C,pubchem,0,0,0,0,randonly selected as training point or test point
2-[2-(2-acetyloxyethoxy)ethoxy]ethyl acetate,447.15,1,CC(=O)OCCOCCOCCOC(=O)C,pubchem,0,0,0,0,randonly selected as training point or test point
hexan-1-amine,302.15,1,CCCCCCN,pubchem,0,0,0,0,randonly selected as training point or test point
hexan-1-ol,336.15,1,CCCCCCO,pubchem,0,0,0,0,randonly selected as training point or test point
"pentane-1,5-diol",402.15,1,C(CCO)CCO,pubchem,0,0,0,0,randonly selected as training point or test point
hexane-1-thiol,293.15,1,CCCCCCS,pubchem,0,0,0,0,randonly selected as training point or test point
1-ethenoxybutane,264.15,1,CCCCOC=C,pubchem,0,0,0,0,randonly selected as training point or test point
3-ethoxypropan-1-ol,327.15,1,CCOCCCO,pubchem,0,0,0,0,randonly selected as training point or test point
1-isocyanatobutane,292.15,1,CCCCN=C=O,pubchem,0,0,0,0,randonly selected as training point or test point
"N'-(2-aminoethyl)ethane-1,2-diamine",375.15,1,C(CNCCN)N,pubchem,0,0,0,0,randonly selected as training point or test point
2-(2-aminoethylamino)ethanol,375.15,1,C(CNCCO)N,pubchem,0,0,0,0,randonly selected as training point or test point
2-(2-hydroxyethylamino)ethanol,410.15,1,C(CO)NCCO,pubchem,0,0,0,0,randonly selected as training point or test point
1-propoxypropane,294.15,1,CCCOCCC,pubchem,0,0,0,0,randonly selected as training point or test point
1-chloro-2-(2-chloroethoxy)ethane,328.15,1,C(CCl)OCCCl,pubchem,0,0,0,0,randonly selected as training point or test point
2-(2-hydroxyethoxy)ethanol,416.15,1,C(COCCO)O,pubchem,0,0,0,0,randonly selected as training point or test point
azepane,310.15,1,C1CCCNCC1,pubchem,0,0,0,0,randonly selected as training point or test point
2-acetyloxyethyl acetate,369.15,1,CC(=O)OCCOC(=O)C,pubchem,0,0,0,0,randonly selected as training point or test point
octanoyl chloride,354.15,1,CCCCCCCC(=O)Cl,pubchem,0,0,0,0,randonly selected as training point or test point
oct-1-ene,294.15,1,CCCCCCC=C,pubchem,0,0,0,0,randonly selected as training point or test point
hexanedinitrile,366.15,1,C(CCC#N)CC#N,pubchem,0,0,0,0,randonly selected as training point or test point
heptan-1-ol,350.15,1,CCCCCCCO,pubchem,0,0,0,0,randonly selected as training point or test point
heptanal,308.15,1,CCCCCCC=O,pubchem,0,0,0,0,randonly selected as training point or test point
2-butoxyethanol,334.15,1,CCCCOCCO,pubchem,0,0,0,0,randonly selected as training point or test point
2-(2-methoxyethoxy)ethanol,366.15,1,COCCOCCO,pubchem,0,0,0,0,randonly selected as training point or test point
nonane,304.15,1,CCCCCCCCC,pubchem,0,0,0,0,randonly selected as training point or test point
1-chlorooctane,343.15,1,CCCCCCCCCl,pubchem,0,0,0,0,randonly selected as training point or test point
octane-1-thiol,319.15,1,CCCCCCCCS,pubchem,0,0,0,0,randonly selected as training point or test point
2-(2-ethoxyethoxy)ethanol,369.15,1,CCOCCOCCO,pubchem,0,0,0,0,randonly selected as training point or test point
1-chloro-2-(2-chloroethoxymethoxy)ethane,383.15,1,C(CCl)OCOCCCl,pubchem,0,0,0,0,randonly selected as training point or test point
N-butylbutan-1-amine,325.15,1,CCCCNCCCC,pubchem,0,0,0,0,randonly selected as training point or test point
3-(2-cyanoethylamino)propanenitrile,383.15,1,C(CNCCC#N)C#N,pubchem,0,0,0,0,randonly selected as training point or test point
1-methoxy-2-(2-methoxyethoxy)ethane,340.15,1,COCCOCCOC,pubchem,0,0,0,0,randonly selected as training point or test point
hexadecyl(trimethyl)azanium;chloride,294.15,1,CCCCCCCCCCCCCCCC[N+](C)(C)C.[Cl-],pubchem,0,0,0,0,randonly selected as training point or test point
trichloro(octadecyl)silane,362.15,1,CCCCCCCCCCCCCCCCCC[Si](Cl)(Cl)Cl,pubchem,1,1,0,0,randonly selected as training point or test point
nonanoic acid,406.15,1,CCCCCCCCC(=O)O,pubchem,0,0,0,1,randonly selected as training point or test point
heptyl acetate,341.15,1,CCCCCCCOC(=O)C,pubchem,0,0,0,0,randonly selected as training point or test point
2-butoxyethyl acetate,344.15,1,CCCCOCCOC(=O)C,pubchem,0,0,0,0,randonly selected as training point or test point
undecan-2-one,362.15,1,CCCCCCCCCC(=O)C,pubchem,0,0,0,0,randonly selected as training point or test point
2-(2-ethoxyethoxy)ethyl acetate,383.15,1,CCOCCOCCOC(=O)C,pubchem,0,0,0,0,randonly selected as training point or test point
2-hexoxyethanol,364.15,1,CCCCCCOCCO,pubchem,0,0,0,0,randonly selected as training point or test point
"1,2-bis(2-chloroethoxy)ethane",523.15,1,C(COCCCl)OCCCl,pubchem,0,0,0,0,randonly selected as training point or test point
2-[2-(2-hydroxyethoxy)ethoxy]ethanol,439.15,1,C(COCCOCCO)O,pubchem,0,0,0,0,randonly selected as training point or test point
decan-1-ol,355.15,1,CCCCCCCCCCO,pubchem,0,0,0,0,randonly selected as training point or test point
decanal,358.15,1,CCCCCCCCCC=O,pubchem,0,0,0,0,randonly selected as training point or test point
2-(2-butoxyethoxy)ethanol,351.15,1,CCCCOCCOCCO,pubchem,0,0,0,0,randonly selected as training point or test point
1-ethoxy-2-(2-ethoxyethoxy)ethane,327.15,1,CCOCCOCCOCC,pubchem,0,0,0,0,randonly selected as training point or test point
dodecane,347.15,1,CCCCCCCCCCCC,pubchem,0,0,0,0,randonly selected as training point or test point
dodec-1-ene,373.15,1,CCCCCCCCCCC=C,pubchem,0,0,0,0,randonly selected as training point or test point
undecan-1-ol,366.15,1,CCCCCCCCCCCO,pubchem,0,0,0,0,randonly selected as training point or test point
1-(2-butoxyethoxy)butane,358.15,1,CCCCOCCOCCCC,pubchem,0,0,0,0,randonly selected as training point or test point
1-methoxy-2-[2-(2-methoxyethoxy)ethoxy]ethane,384.15,1,COCCOCCOCCOC,pubchem,0,0,0,0,randonly selected as training point or test point
2-[2-(2-ethoxyethoxy)ethoxy]ethanol,408.15,1,CCOCCOCCOCCO,pubchem,0,0,0,0,randonly selected as training point or test point
1-chlorododecane,386.15,1,CCCCCCCCCCCCCl,pubchem,0,0,0,0,randonly selected as training point or test point
dodecan-1-ol,400.15,1,CCCCCCCCCCCCO,pubchem,0,0,0,0,randonly selected as training point or test point
dodecane-1-thiol,361.15,1,CCCCCCCCCCCCS,pubchem,0,0,0,0,randonly selected as training point or test point
2-(2-butoxyethoxy)ethyl thiocyanate,325.15,1,CCCCOCCOCCSC#N,pubchem,0,0,0,0,randonly selected as training point or test point
"N'-[2-[2-(2-aminoethylamino)ethylamino]ethyl]ethane-1,2-diamine",436.15,1,C(CNCCNCCNCCN)N,pubchem,0,0,0,0,randonly selected as training point or test point
2-(2-hexoxyethoxy)ethanol,414.15,1,CCCCCCOCCOCCO,pubchem,0,0,0,0,randonly selected as training point or test point
2-[2-[2-(2-hydroxyethoxy)ethoxy]ethoxy]ethanol,455.15,1,C(COCCOCCOCCO)O,pubchem,0,0,0,0,randonly selected as training point or test point
methyl octadecanoate,426.15,1,CCCCCCCCCCCCCCCCCC(=O)OC,pubchem,0,0,0,0,randonly selected as training point or test point
tridecan-1-ol,394.15,1,CCCCCCCCCCCCCO,pubchem,0,0,0,0,randonly selected as training point or test point
tetradecan-1-ol,414.15,1,CCCCCCCCCCCCCCO,pubchem,0,0,0,0,randonly selected as training point or test point
1-[2-(2-butoxyethoxy)ethoxy]butane,391.15,1,CCCCOCCOCCOCCCC,pubchem,0,0,0,0,randonly selected as training point or test point
octadecan-1-ol,473.15,1,CCCCCCCCCCCCCCCCCCO,pubchem,0,0,0,0,randonly selected as training point or test point
icosane,373.15,1,CCCCCCCCCCCCCCCCCCCC,pubchem,0,0,0,0,randonly selected as training point or test point
"4-(2-ethylhexyl)-4-azatricyclo[5.2.1.02,6]dec-8-ene-3,5-dione",450.15,1,CCCCC(CC)CN1C(=O)C2C3CC(C2C1=O)C=C3,pubchem,0,0,0,0,randonly selected as training point or test point
prop-1-ene,165.15,1,CC=C,pubchem,0,0,0,0,randonly selected as training point or test point
methoxymethane,269.15,1,COC,pubchem,0,0,0,0,randonly selected as training point or test point
2-methylprop-1-ene,197.15,1,CC(=C)C,pubchem,0,0,0,0,randonly selected as training point or test point
2-methylbut-3-en-2-ol,286.15,1,CC(C)(C=C)O,pubchem,0,0,0,0,randonly selected as training point or test point
2-methylbut-3-yn-2-ol,298.15,1,CC(C)(C#C)O,pubchem,0,0,0,0,randonly selected as training point or test point
trichloro(ethyl)silane,295.15,1,CC[Si](Cl)(Cl)Cl,pubchem,1,1,0,0,randonly selected as training point or test point
"(1,7,7-trimethyl-2-bicyclo[2.2.1]heptanyl) 2-thiocyanatoacetate",355.15,1,CC1(C2CCC1(C(C2)OC(=O)CSC#N)C)C,pubchem,0,0,0,0,randonly selected as training point or test point
"2,2,2-trichloro-1,1-bis(4-chlorophenyl)ethanol",297.15,1,C1=CC(=CC=C1C(C2=CC=C(C=C2)Cl)(C(Cl)(Cl)Cl)O)Cl,pubchem,0,0,0,0,randonly selected as training point or test point
"2,2-bis(hydroxymethyl)propane-1,3-diol",513.15,1,C(C(CO)(CO)CO)O,pubchem,0,0,0,0,randonly selected as training point or test point
triphenyl phosphate,493.15,1,C1=CC=C(C=C1)OP(=O)(OC2=CC=CC=C2)OC3=CC=CC=C3,pubchem,0,0,0,0,randonly selected as training point or test point
"3,7-dimethylocta-1,6-dien-3-yl acetate",367.15,1,CC(=CCCC(C)(C=C)OC(=O)C)C,pubchem,0,0,0,0,randonly selected as training point or test point
tris(2-chloroethyl) phosphate,505.15,1,C(CCl)OP(=O)(OCCCl)OCCCl,pubchem,0,0,0,0,randonly selected as training point or test point
"3,3,5-trimethylcyclohexan-1-ol",347.15,1,CC1CC(CC(C1)(C)C)O,pubchem,0,0,0,0,randonly selected as training point or test point
tripropan-2-yl phosphite,347.15,1,CC(C)OP(OC(C)C)OC(C)C,pubchem,0,0,0,0,randonly selected as training point or test point
"methyl 2,2-dichloroacetate",353.15,1,COC(=O)C(Cl)Cl,pubchem,0,0,0,0,randonly selected as training point or test point
"4,5,6,7-tetrachloro-2-benzofuran-1,3-dione",635.15,1,C12=C(C(=C(C(=C1Cl)Cl)Cl)Cl)C(=O)OC2=O,pubchem,0,0,0,0,randonly selected as training point or test point
1-chloro-4-[1-(4-chlorophenyl)-2-nitrobutyl]benzene,423.15,1,CCC(C(C1=CC=C(C=C1)Cl)C2=CC=C(C=C2)Cl)[N+](=O)[O-],pubchem,0,0,0,0,randonly selected as training point or test point
"2-aminoanthracene-9,10-dione",556.15,1,C1=CC=C2C(=C1)C(=O)C3=C(C2=O)C=C(C=C3)N,pubchem,0,0,0,0,randonly selected as training point or test point
"bis(2-ethylhexyl) benzene-1,2-dicarboxylate",480.15,1,CCCCC(CC)COC(=O)C1=CC=CC=C1C(=O)OCC(CC)CCCC,pubchem,0,0,0,0,randonly selected as training point or test point
"bis(2-methoxyethyl) benzene-1,2-dicarboxylate",483.15,1,COCCOC(=O)C1=CC=CC=C1C(=O)OCCOC,pubchem,0,0,0,0,randonly selected as training point or test point
"bis(2-butoxyethyl) benzene-1,2-dicarboxylate",680.15,1,CCCCOCCOC(=O)C1=CC=CC=C1C(=O)OCCOCCCC,pubchem,0,0,0,0,randonly selected as training point or test point
"dioctyl benzene-1,2-dicarboxylate",377.15,1,CCCCCCCCOC(=O)C1=CC=CC=C1C(=O)OCCCCCCCC,pubchem,0,0,0,0,randonly selected as training point or test point
"1,3-dichloro-5,5-dimethylimidazolidine-2,4-dione",447.15,1,CC1(C(=O)N(C(=O)N1Cl)Cl)C,pubchem,0,0,0,0,randonly selected as training point or test point
benzyl 2-hydroxybenzoate,453.15,1,C1=CC=C(C=C1)COC(=O)C2=CC=CC=C2O,pubchem,0,0,0,0,randonly selected as training point or test point
"1,3-dichloro-2-methylbenzene",355.15,1,CC1=C(C=CC=C1Cl)Cl,pubchem,0,0,0,0,randonly selected as training point or test point
"1,2,3,4,5,6-hexachlorobenzene",515.15,1,C1(=C(C(=C(C(=C1Cl)Cl)Cl)Cl)Cl)Cl,pubchem,0,0,0,0,randonly selected as training point or test point
"ditridecyl benzene-1,2-dicarboxylate",511.15,1,CCCCCCCCCCCCCOC(=O)C1=CC=CC=C1C(=O)OCCCCCCCCCCCCC,pubchem,0,0,0,0,randonly selected as training point or test point
"2-O-decyl 1-O-octyl benzene-1,2-dicarboxylate",508.15,1,CCCCCCCCCCOC(=O)C1=CC=CC=C1C(=O)OCCCCCCCC,pubchem,0,0,0,0,randonly selected as training point or test point
4-methyl-3-nitroaniline,430.15,1,CC1=C(C=C(C=C1)N)[N+](=O)[O-],pubchem,0,0,0,0,randonly selected as training point or test point
"1,2,3,4-tetrahydronaphthalene",353.15,1,C1CCC2=CC=CC=C2C1,pubchem,0,0,0,0,randonly selected as training point or test point
4-(4-amino-3-methoxyphenyl)-2-methoxyaniline,479.15,1,COC1=C(C=CC(=C1)C2=CC(=C(C=C2)N)OC)N,pubchem,0,0,0,0,randonly selected as training point or test point
4-(4-amino-3-methylphenyl)-2-methylaniline,517.15,1,CC1=C(C=CC(=C1)C2=CC(=C(C=C2)N)C)N,pubchem,0,0,0,0,randonly selected as training point or test point
anthracene,394.15,1,C1=CC=C2C=C3C=CC=CC3=CC2=C1,pubchem,0,0,0,0,randonly selected as training point or test point
2-benzyl-4-chlorophenol,461.15,1,C1=CC=C(C=C1)CC2=C(C=CC(=C2)Cl)O,pubchem,0,0,0,0,randonly selected as training point or test point
"2-(2,4-dichlorophenoxy)propanoic acid",477.15,1,CC(C(=O)O)OC1=C(C=C(C=C1)Cl)Cl,pubchem,0,0,0,1,randonly selected as training point or test point
2-(2-benzoyloxyethoxy)ethyl benzoate,505.15,1,C1=CC=C(C=C1)C(=O)OCCOCCOC(=O)C2=CC=CC=C2,pubchem,0,0,0,0,randonly selected as training point or test point
"dimethyl benzene-1,4-dicarboxylate",426.15,1,COC(=O)C1=CC=C(C=C1)C(=O)OC,pubchem,0,0,0,0,randonly selected as training point or test point
"2-(1,3-benzothiazol-2-yldisulfanyl)-1,3-benzothiazole",543.15,1,C1=CC=C2C(=C1)N=C(S2)SSC3=NC4=CC=CC=C4S3,pubchem,0,0,0,0,randonly selected as training point or test point
"2,4-dichlorophenol",387.15,1,C1=CC(=C(C=C1Cl)Cl)O,pubchem,0,0,0,0,randonly selected as training point or test point
cyclopentanone,303.15,1,C1CCC(=O)C1,pubchem,0,0,0,0,randonly selected as training point or test point
2-tert-butyl-4-methoxyphenol,429.15,1,CC(C)(C)C1=C(C=CC(=C1)OC)O,pubchem,0,0,0,0,randonly selected as training point or test point
"1-methyl-2,4-dinitrobenzene",480.15,1,CC1=C(C=C(C=C1)[N+](=O)[O-])[N+](=O)[O-],pubchem,0,0,0,0,randonly selected as training point or test point
3-ethoxy-4-hydroxybenzaldehyde,418.15,1,CCOC1=C(C=CC(=C1)C=O)O,pubchem,0,0,0,0,randonly selected as training point or test point
"N,N-diethylethanamine",266.15,1,CCN(CC)CC,pubchem,0,0,0,0,randonly selected as training point or test point
trimethyl phosphite,301.15,1,COP(OC)OC,pubchem,0,0,0,0,randonly selected as training point or test point
"bicyclo[2.2.1]hepta-2,5-diene",252.15,1,C1C2C=CC1C=C2,pubchem,0,0,0,0,randonly selected as training point or test point
1-chloro-3-nitrobenzene,400.15,1,C1=CC(=CC(=C1)Cl)[N+](=O)[O-],pubchem,0,0,0,0,randonly selected as training point or test point
2-chloro-4-nitroaniline,478.15,1,C1=CC(=C(C=C1[N+](=O)[O-])Cl)N,pubchem,0,0,0,0,randonly selected as training point or test point
"dimethyl benzene-1,2-dicarboxylate",419.15,1,COC(=O)C1=CC=CC=C1C(=O)OC,pubchem,0,0,0,0,randonly selected as training point or test point
"bis(prop-2-enyl) benzene-1,2-dicarboxylate",383.15,1,C=CCOC(=O)C1=CC=CC=C1C(=O)OCC=C,pubchem,0,0,0,0,randonly selected as training point or test point
"dipentyl benzene-1,2-dicarboxylate",454.15,1,CCCCCOC(=O)C1=CC=CC=C1C(=O)OCCCCC,pubchem,0,0,0,0,randonly selected as training point or test point
methyl 2-aminobenzoate,377.15,1,COC(=O)C1=CC=CC=C1N,pubchem,0,0,0,0,randonly selected as training point or test point
naphthalen-1-amine,430.15,1,C1=CC=C2C(=C1)C=CC=C2N,pubchem,0,0,0,0,randonly selected as training point or test point
"1,2-diethylbenzene",330.15,1,CCC1=CC=CC=C1CC,pubchem,0,0,0,0,randonly selected as training point or test point
naphthalen-2-ol,426.15,1,C1=CC=C2C=C(C=CC2=C1)O,pubchem,0,0,0,0,randonly selected as training point or test point
butan-2-ylbenzene,325.15,1,CCC(C)C1=CC=CC=C1,pubchem,0,0,0,0,randonly selected as training point or test point
"dipropyl pyridine-2,5-dicarboxylate",366.15,1,CCCOC(=O)C1=CN=C(C=C1)C(=O)OCCC,pubchem,0,0,0,0,randonly selected as training point or test point
2-ethylhexanoic acid,400.15,1,CCCCC(CC)C(=O)O,pubchem,0,0,0,1,randonly selected as training point or test point
butyl benzoate,380.15,1,CCCCOC(=O)C1=CC=CC=C1,pubchem,0,0,0,0,randonly selected as training point or test point
methyl 2-cyanoprop-2-enoate,352.15,1,COC(=O)C(=C)C#N,pubchem,0,0,0,0,randonly selected as training point or test point
"zinc;N,N-dimethylcarbamodithioate",366.15,1,CN(C)C(=S)[S-].CN(C)C(=S)[S-].[Zn+2],pubchem,0,1,0,0,randonly selected as training point or test point
2-methylbutan-1-ol,323.15,1,CCC(C)CO,pubchem,0,0,0,0,randonly selected as training point or test point
"2,4-di(nonyl)phenol",400.15,1,CCCCCCCCCC1=CC(=C(C=C1)O)CCCCCCCCC,pubchem,0,0,0,0,randonly selected as training point or test point
butyl 2-hydroxypropanoate,344.15,1,CCCCOC(=O)C(C)O,pubchem,0,0,0,0,randonly selected as training point or test point