compound,flashpoint,pure substance,smiles,source,is_silicon,is_metallic,is_tin,is_acid,data type
"Naphthalene, decahydro-, cis-",330.35,1,C1CC[C@H]2CCCC[C@H]2C1,le15,0,0,0,0,randonly selected as training point or test point
"Naphthalene, decahydro-, trans-",330.35,1,C1CC[C@H]2CCCC[C@@H]2C1,le15,0,0,0,0,randonly selected as training point or test point
"Cyclohexene, 4-methyl-1-(1-methylethyl)-",316.45,1,CC1CC=C(C(C)C)CC1,le15,0,0,0,0,randonly selected as training point or test point
cyclodecene,332.25,1,C1=CCCCCCCCC1,le15,0,0,0,0,randonly selected as training point or test point
dec-3-yne,325.35,1,CCC#CCCCCCC,le15,0,0,0,0,randonly selected as training point or test point
"1,6-Octadiene, 3,7-dimethyl-",315.45,1,C=CC(C)CCC=C(C)C,le15,0,0,0,0,randonly selected as training point or test point
1-pentylcyclopentene,324.45,1,CCCCCC1=CCCC1,le15,0,0,0,0,randonly selected as training point or test point
"4,6,6-trimethylbicyclo[3.1.1]heptane",309.15,1,CC1CCC2CC1C2(C)C,le15,0,0,0,0,randonly selected as training point or test point
"2,7-Dimethyl-2,6-octadiene",317.05,1,CC(C)=CCCC=C(C)C,le15,0,0,0,0,randonly selected as training point or test point
1-methyl-4-prop-1-en-2-ylcyclohexane,316.85,1,C=C(C)C1CCC(C)CC1,le15,0,0,0,0,randonly selected as training point or test point
(4R)-1-methyl-4-propan-2-ylcyclohexene,316.45,1,CC1=CC[C@H](C(C)C)CC1,le15,0,0,0,0,randonly selected as training point or test point
1decyne,323.0,1,C#CCCCCCCCC,le15,0,0,0,0,randonly selected as training point or test point
2octyne,301.0,1,CC#CCCCCC,le15,0,0,0,0,randonly selected as training point or test point
1-chloroethenylbenzene,343.25,1,C=C(Cl)c1ccccc1,le15,0,0,0,0,randonly selected as training point or test point
"Benzene, 1-chloro-2-ethenyl- (9CI)",333.593,1,C=Cc1ccccc1Cl,le15,0,0,0,0,randonly selected as training point or test point
1-chloro-4-ethenylbenzene,334.346,1,C=Cc1ccc(Cl)cc1,le15,0,0,0,0,randonly selected as training point or test point
1-chloro-6-fluorohexane,316.95,1,FCCCCCCCl,le15,0,0,0,0,randonly selected as training point or test point
Monobromoacetic acid,352.163,1,O=C(O)CBr,le15,0,0,0,1,randonly selected as training point or test point
"1-Propanol, 3-bromo-",367.05,1,OCCCBr,le15,0,0,0,0,randonly selected as training point or test point
"2-Propanol, 1-bromo-",327.55,1,CC(O)CBr,le15,0,0,0,0,randonly selected as training point or test point
"Phenol, 4-nitro-",415.05,1,O=[N+]([O-])c1ccc(O)cc1,le15,0,0,0,0,randonly selected as training point or test point
"Phenol, 2-nitro-",381.15,1,O=[N+]([O-])c1ccccc1O,le15,0,0,0,0,randonly selected as training point or test point
"Phenol, 3-nitro-",400.05,1,O=[N+]([O-])c1cccc(O)c1,le15,0,0,0,0,randonly selected as training point or test point
"2-Propenoic acid, 2-methyl-, 2-cyanoethyl ester (9CI)",381.95,1,C=C(C)C(=O)OCCC#N,le15,0,0,0,1,randonly selected as training point or test point
"2,6-dimethoxypyridine",334.15,1,COc1cccc(OC)n1,le15,0,0,0,0,randonly selected as training point or test point
(sulfinylamino)benzene,357.55,1,O=S=Nc1ccccc1,le15,0,0,0,0,randonly selected as training point or test point
8-methyl-8-azabicyclo[3.2.1]octan-3-one,363.15,1,CN1C2CCC1CC(=O)C2,le15,0,0,0,0,randonly selected as training point or test point
2-methylsulfanylaniline,368.95,1,CSc1ccccc1N,le15,0,0,0,0,randonly selected as training point or test point
n-Octanenitrile,354.25,1,CCCCCCCC#N,le15,0,0,0,0,randonly selected as training point or test point
"(4aR,8aR)-1,2,3,4,4a,5,6,7,8,8a-decahydroquinoline",341.45,1,C1CC[C@H]2NCCC[C@H]2C1,le15,0,0,0,0,randonly selected as training point or test point
bromo(nitro)methane,308.55,1,O=[N+]([O-])CBr,le15,0,0,0,0,randonly selected as training point or test point
Methanearsonic acid,478.95,1,C[As](=O)(O)O,le15,0,1,0,1,randonly selected as training point or test point
"Phosphoric acid, trimethyl ester",356.85,1,COP(=O)(OC)OC,le15,0,0,0,1,randonly selected as training point or test point
"Phosphonofluoridic acid, methyl-, 1-methylethyl ester",315.85,1,CC(C)OP(C)(=O)F,le15,0,0,0,1,randonly selected as training point or test point
"Pyridine, 4-nitro-, 1-oxide",467.15,1,O=[N+]([O-])c1cc[n+]([O-])cc1,le15,0,0,0,0,randonly selected as training point or test point
ethyl furan-2-carboxylate,343.15,1,CCOC(=O)c1ccco1,le15,0,0,0,0,randonly selected as training point or test point
"2-Furanmethanol, 2-acetate",338.15,1,CC(=O)OCc1ccco1,le15,0,0,0,0,randonly selected as training point or test point
"Pyrocatechol, 3-methoxy- (8CI)",392.65,1,COc1cccc(O)c1O,le15,0,0,0,0,randonly selected as training point or test point
3-(furan-2-yl)propanoic acid,376.15,1,O=C(O)CCc1ccco1,le15,0,0,0,1,randonly selected as training point or test point
"4H-Pyran-4-one, 2-ethyl-3-hydroxy-",397.95,1,CCc1occc(=O)c1O,le15,0,0,0,0,randonly selected as training point or test point
1-ethoxy-2-fluorobenzene,333.25,1,CCOc1ccccc1F,le15,0,0,0,0,randonly selected as training point or test point
1-ethoxy-3-fluorobenzene,324.45,1,CCOc1cccc(F)c1,le15,0,0,0,0,randonly selected as training point or test point
4-Fluorophenetole,335.45,1,CCOc1ccc(F)cc1,le15,0,0,0,0,randonly selected as training point or test point
"5,10-Dioxatricyclo(7.1.0.04,6)decane",378.15,1,C1CC2OC2CCC2OC12,le15,0,0,0,0,randonly selected as training point or test point
"Acetic acid, 2,4-hexadienyl ester",352.75,1,CC=CC=CCOC(C)=O,le15,0,0,0,1,randonly selected as training point or test point
"ethyl (2E,4E)-hexa-2,4-dienoate",342.55,1,C/C=C/C=C/C(=O)OCC,le15,0,0,0,0,randonly selected as training point or test point
"3,3-dimethyl-4-propan-2-ylideneoxetan-2-one",335.95,1,CC(C)=C1OC(=O)C1(C)C,le15,0,0,0,0,randonly selected as training point or test point
"3-prop-2-enylpentane-2,4-dione",349.95,1,C=CCC(C(C)=O)C(C)=O,le15,0,0,0,0,randonly selected as training point or test point
Oct-2-ynoic acid,374.25,1,CCCCCC#CC(=O)O,le15,0,0,0,1,randonly selected as training point or test point
"4-Pentenoic acid, 2-(2-propenyl)- (9CI)",329.55,1,C=CCC(CC=C)C(=O)O,le15,0,0,0,1,randonly selected as training point or test point
"7-Oxabicyclo(4.1.0)heptane, 3-(epoxyethyl)-",359.55,1,C1CC2OC2CC1C1CO1,le15,0,0,0,0,randonly selected as training point or test point
"1,3-Cyclohexanedione, 5,5-dimethyl-",358.25,1,CC1(C)CC(=O)CC(=O)C1,le15,0,0,0,0,randonly selected as training point or test point
"4-Morpholineacetonitrile, alpha-methyl-",363.85,1,CC(C#N)N1CCOCC1,le15,0,0,0,0,randonly selected as training point or test point
methylsulfinylbenzene,390.95,1,CS(=O)c1ccccc1,le15,0,0,0,0,randonly selected as training point or test point
"Benzenethiol, 2-methoxy-",368.15,1,COc1ccccc1S,le15,0,0,0,0,randonly selected as training point or test point
3-methoxybenzenethiol,369.25,1,COc1cccc(S)c1,le15,0,0,0,0,randonly selected as training point or test point
"1,3,5,7-Tetraazatricyclo(3.3.1.13,7)decane",377.095,1,C1N2CN3CN1CN(C2)C3,le15,0,0,0,0,randonly selected as training point or test point
4-methoxybenzenethiol,362.95,1,COc1ccc(S)cc1,le15,0,0,0,0,randonly selected as training point or test point
"Propanenitrile, 3,3'-thiobis-",432.75,1,N#CCCSCCC#N,le15,0,0,0,0,randonly selected as training point or test point
"5-Heptenal, 2,6-dimethyl-",333.75,1,CC(C)=CCCC(C)C=O,le15,0,0,0,0,randonly selected as training point or test point
"3,3,5-trimethylcyclohexan-1-one",337.15,1,CC1CC(=O)CC(C)(C)C1,le15,0,0,0,0,randonly selected as training point or test point
1-cyclohexylpropan-1-one,347.65,1,CCC(=O)C1CCCCC1,le15,0,0,0,0,randonly selected as training point or test point
"2,4,4-trimethylcyclohexan-1-one",331.65,1,CC1CC(C)(C)CCC1=O,le15,0,0,0,0,randonly selected as training point or test point
Non-2-yn-1-ol,328.05,1,CCCCCCC#CCO,le15,0,0,0,0,randonly selected as training point or test point
2-Nonenal,357.55,1,CCCCCCC=CC=O,le15,0,0,0,0,randonly selected as training point or test point
2-butylthiophene,316.25,1,CCCCc1cccs1,le15,0,0,0,0,randonly selected as training point or test point
1-methyl-4-propan-2-ylcyclohexane,317.85,1,CC1CCC(C(C)C)CC1,le15,0,0,0,0,randonly selected as training point or test point
cyclodecane,331.931,1,C1CCCCCCCCC1,le15,0,0,0,0,randonly selected as training point or test point
butylcyclohexane,314.25,1,CCCCC1CCCCC1,le15,0,0,0,0,randonly selected as training point or test point
Isobutylcyclohexane,321.45,1,CC(C)CC1CCCCC1,le15,0,0,0,0,randonly selected as training point or test point
"Cyclohexane, 1,2,4,5-tetramethyl-",313.65,1,CC1CC(C)C(C)CC1C,le15,0,0,0,0,randonly selected as training point or test point
2-methylnon-1-ene,315.75,1,C=C(C)CCCCCCC,le15,0,0,0,0,randonly selected as training point or test point
tert-butylcyclohexane,315.35,1,CC(C)(C)C1CCCCC1,le15,0,0,0,0,randonly selected as training point or test point
"1,2,3,4-tetramethylcyclohexane",313.65,1,CC1CCC(C)C(C)C1C,le15,0,0,0,0,randonly selected as training point or test point
"2,6-dimethyloct-2-ene",305.15,1,CCC(C)CCC=C(C)C,le15,0,0,0,0,randonly selected as training point or test point
1-methyl-2-propylcyclohexane,320.85,1,CCCC1CCCCC1C,le15,0,0,0,0,randonly selected as training point or test point
1-methyl-3-propylcyclohexane,320.85,1,CCCC1CCCC(C)C1,le15,0,0,0,0,randonly selected as training point or test point
"3,7-dimethyloct-1-ene",316.95,1,C=CC(C)CCCC(C)C,le15,0,0,0,0,randonly selected as training point or test point
(E)-dec-5-ene,319.25,1,CCCC/C=C/CCCC,le15,0,0,0,0,randonly selected as training point or test point
1-methyl-3-propan-2-ylcyclohexane,317.85,1,CC1CCCC(C(C)C)C1,le15,0,0,0,0,randonly selected as training point or test point
"Cyclohexane, 1,1,3,5-tetramethyl-, trans-",311.25,1,C[C@H]1C[C@H](C)CC(C)(C)C1,le15,0,0,0,0,randonly selected as training point or test point
"Cyclohexane, 1,1,3,5-tetramethyl-, cis-",311.25,1,C[C@H]1C[C@@H](C)CC(C)(C)C1,le15,0,0,0,0,randonly selected as training point or test point
butan-2-ylcyclohexane,321.35,1,CCC(C)C1CCCCC1,le15,0,0,0,0,randonly selected as training point or test point
(Z)-dec-5-ene,318.65,1,CCCC/C=C\CCCC,le15,0,0,0,0,randonly selected as training point or test point
1decene,320.15,1,C=CCCCCCCCC,le15,0,0,0,0,randonly selected as training point or test point
2octene,287.0,1,CC=CCCCCC,le15,0,0,0,0,randonly selected as training point or test point
5decene,319.0,1,CCCCC=CCCCC,le15,0,0,0,0,randonly selected as training point or test point
Butylcyclohexane,314.0,1,CCCCC1CCCCC1,le15,0,0,0,0,randonly selected as training point or test point
Cyclodecane,338.0,1,C1CCCCCCCCC1,le15,0,0,0,0,randonly selected as training point or test point
tertButylCyclohexane,315.0,1,CC(C)(C)C1CCCCC1,le15,0,0,0,0,randonly selected as training point or test point
chloro(dimethyl)arsane,299.05,1,C[As](C)Cl,le15,0,1,0,0,randonly selected as training point or test point
ethyl 2-chloro-2-fluoroacetate,317.45,1,CCOC(=O)C(F)Cl,le15,0,0,0,0,randonly selected as training point or test point
"Benzaldehyde, 4-chloro-",360.92800000000005,1,O=Cc1ccc(Cl)cc1,le15,0,0,0,0,randonly selected as training point or test point
"Benzaldehyde, m-chloro- (8CI)",358.55,1,O=Cc1cccc(Cl)c1,le15,0,0,0,0,randonly selected as training point or test point
"Benzaldehyde, 2-chloro-",360.95,1,O=Cc1ccccc1Cl,le15,0,0,0,0,randonly selected as training point or test point
1-chloro-2-ethylbenzene,333.15,1,CCc1ccccc1Cl,le15,0,0,0,0,randonly selected as training point or test point
"1,3-Dimethyl-4-chlorobenzene",335.25,1,Cc1ccc(Cl)c(C)c1,le15,0,0,0,0,randonly selected as training point or test point
"2-chloro-1,4-dimethylbenzene",330.35,1,Cc1ccc(C)c(Cl)c1,le15,0,0,0,0,randonly selected as training point or test point
"Benzene, 1-(chloromethyl)-4-methyl-",348.75,1,Cc1ccc(CCl)cc1,le15,0,0,0,0,randonly selected as training point or test point
1-(chloromethyl)-2-methylbenzene,349.15,1,Cc1ccccc1CCl,le15,0,0,0,0,randonly selected as training point or test point
"1,2-Dimethyl-3-chlorobenzene",336.75,1,Cc1cccc(Cl)c1C,le15,0,0,0,0,randonly selected as training point or test point
"4-chloro-1,2-dimethylbenzene",340.15,1,Cc1ccc(Cl)cc1C,le15,0,0,0,0,randonly selected as training point or test point
1-(chloromethyl)-3-methylbenzene,348.75,1,Cc1cccc(CCl)c1,le15,0,0,0,0,randonly selected as training point or test point
1-chloro-2-ethylbenzene,339.15,1,CCc1ccccc1Cl,le15,0,0,0,0,randonly selected as training point or test point
"2-chloro-1,3-dimethylbenzene",336.45,1,Cc1cccc(C)c1Cl,le15,0,0,0,0,randonly selected as training point or test point
1-bromo-3-fluoropropane,289.55,1,FCCCBr,le15,0,0,0,0,randonly selected as training point or test point
"Butane, 1,4-dichloro-2,3-epoxy-",406.65,1,ClCC1OC1CCl,le15,0,0,0,0,randonly selected as training point or test point
"1,3-dichlorobutan-2-one",332.15,1,CC(Cl)C(=O)CCl,le15,0,0,0,0,randonly selected as training point or test point
4-chlorobutanoyl chloride,343.35,1,O=C(Cl)CCCCl,le15,0,0,0,0,randonly selected as training point or test point
"1,1-dichloro-3-methylbutane",304.75,1,CC(C)CC(Cl)Cl,le15,0,0,0,0,randonly selected as training point or test point
"2,4-dichloropentane",309.65,1,CC(Cl)CC(C)Cl,le15,0,0,0,0,randonly selected as training point or test point
"1,2-dichloropentane",315.55,1,CCCC(Cl)CCl,le15,0,0,0,0,randonly selected as training point or test point
"1,2-dichloro-2-methylbutane",308.95,1,CCC(C)(Cl)CCl,le15,0,0,0,0,randonly selected as training point or test point
"2,3-dichloro-2-methylbutane",302.65,1,CC(Cl)C(C)(C)Cl,le15,0,0,0,0,randonly selected as training point or test point
"Silane, dichloroethenylmethyl-",277.55,1,C[SiH2]C=C(Cl)Cl,le15,1,1,0,0,randonly selected as training point or test point
"5-Furancarboxaldehyde, 5-nitro- (9CI)",306.15,1,O=CC1([N+](=O)[O-])C=CCO1,le15,0,0,0,0,randonly selected as training point or test point
"Benzene, 1-fluoro-4-nitro-",356.45,1,O=[N+]([O-])c1ccc(F)cc1,le15,0,0,0,0,randonly selected as training point or test point
"Benzene, 1-fluoro-3-nitro- (8CI)(9CI)",349.85,1,O=[N+]([O-])c1cccc(F)c1,le15,0,0,0,0,randonly selected as training point or test point
"Benzene, 1-fluoro-2-nitro-",367.15,1,O=[N+]([O-])c1ccccc1F,le15,0,0,0,0,randonly selected as training point or test point
"1H-Imidazole, 1,2-dimethyl-5-nitro- (9CI)",416.65,1,Cc1ncc([N+](=O)[O-])n1C,le15,0,0,0,0,randonly selected as training point or test point
"2,5-Pyrrolidinedione, 3-ethyl-3-methyl-",396.95,1,CCC1(C)CC(=O)NC1=O,le15,0,0,0,0,randonly selected as training point or test point
1-acetylpiperidin-4-one,361.05,1,CC(=O)N1CCC(=O)CC1,le15,0,0,0,0,randonly selected as training point or test point
"Acetic acid, cyano-, butyl ester",364.15,1,CCCCOC(=O)CC#N,le15,0,0,0,1,randonly selected as training point or test point
8-methyl-8-azabicyclo[3.2.1]octan-3-ol,385.65,1,CN1C2CCC1CC(O)C2,le15,0,0,0,0,randonly selected as training point or test point
1-piperidin-2-ylpropan-2-one,347.45,1,CC(=O)CC1CCCCN1,le15,0,0,0,0,randonly selected as training point or test point
1-(3-methylpiperidin-1-yl)ethanone,379.85,1,CC(=O)N1CCCC(C)C1,le15,0,0,0,0,randonly selected as training point or test point
isothiocyanatocyclohexane,368.75,1,S=C=NC1CCCCC1,le15,0,0,0,0,randonly selected as training point or test point
1-cyclopentyl-N-methylpropan-2-amine,318.65,1,CNC(C)CC1CCCC1,le15,0,0,0,0,randonly selected as training point or test point
"2,2,6,6-tetramethylpiperidine",297.55,1,CC1(C)CCCC(C)(C)N1,le15,0,0,0,0,randonly selected as training point or test point
1-butylpiperidine,332.95,1,CCCCN1CCCCC1,le15,0,0,0,0,randonly selected as training point or test point
"Cyclohexanemethylamine, N,N-dimethyl- (6CI,7CI,8CI)",313.85,1,CN(C)CC1CCCCC1,le15,0,0,0,0,randonly selected as training point or test point
"N,6-dimethylhept-5-en-2-amine",319.45,1,CNC(C)CCC=C(C)C,le15,0,0,0,0,randonly selected as training point or test point
N-(oxomethylidene)sulfamoyl chloride,291.65,1,O=C=NS(=O)(=O)Cl,le15,0,0,0,0,randonly selected as training point or test point
"Benzenamine, 3-chloro-2-methyl-",385.95,1,Cc1c(N)cccc1Cl,le15,0,0,0,0,randonly selected as training point or test point
"Benzenamine, 6-chloro-2-methyl- (9CI)",372.05,1,Cc1cccc(Cl)c1N,le15,0,0,0,0,randonly selected as training point or test point
"Benzenamine, 4-chloro-2-methyl-",372.55,1,Cc1cc(Cl)ccc1N,le15,0,0,0,0,randonly selected as training point or test point
"Benzenamine, 3-chloro-4-methyl-",373.95,1,Cc1ccc(N)cc1Cl,le15,0,0,0,0,randonly selected as training point or test point
"Benzenamine, 5-chloro-2-methyl-",433.15,1,Cc1ccc(Cl)cc1N,le15,0,0,0,0,randonly selected as training point or test point
2-Chloro-5-methylaniline,380.15,1,Cc1ccc(Cl)c(N)c1,le15,0,0,0,0,randonly selected as training point or test point
"Benzylamine, p-chloro- (8CI)",365.75,1,NCc1ccc(Cl)cc1,le15,0,0,0,0,randonly selected as training point or test point
"Benzenamine, 2-chloro-4-methyl-",372.15,1,Cc1ccc(N)c(Cl)c1,le15,0,0,0,0,randonly selected as training point or test point
4-chloro-N-methylaniline,372.55,1,CNc1ccc(Cl)cc1,le15,0,0,0,0,randonly selected as training point or test point
4-chloro-3-methylaniline,372.95,1,Cc1cc(N)ccc1Cl,le15,0,0,0,0,randonly selected as training point or test point
"Methane, iodo-",280.948,1,CI,le15,0,0,0,0,randonly selected as training point or test point
"Ethanamine, 2-chloro-N-(2-chloroethyl)- (9CI)",350.45,1,ClCCNCCCl,le15,0,0,0,0,randonly selected as training point or test point
"Acetic acid, trifluoro-, ethyl ester",272.15,1,CCOC(=O)C(F)(F)F,le15,0,0,0,1,randonly selected as training point or test point
"Phosphinic acid, phenyl-",399.381,1,O=[PH](O)c1ccccc1,le15,0,0,0,1,randonly selected as training point or test point
"4H-Pyran-4-one, 5-hydroxy-2-(hydroxymethyl)-",453.05,1,O=c1cc(CO)occ1O,le15,0,0,0,0,randonly selected as training point or test point
"Hexa-2,4-dienedioic acid",450.05,1,O=C(O)C=CC=CC(=O)O,le15,0,0,0,1,randonly selected as training point or test point
"Phosphorothioic acid, O,O-dimethyl ester",331.25,1,COP([O-])(=S)OC,le15,0,0,0,1,randonly selected as training point or test point
"2-Propenoic acid, 2-methyl-, oxiranylmethyl ester",349.261,1,C=C(C)C(=O)OCC1CO1,le15,0,0,0,1,randonly selected as training point or test point
prop-2-enyl 3-oxobutanoate,348.15,1,C=CCOC(=O)CC(C)=O,le15,0,0,0,0,randonly selected as training point or test point
bis(prop-2-enyl) carbonate,332.05,1,C=CCOC(=O)OCC=C,le15,0,0,0,0,randonly selected as training point or test point
"4(1H)-Pyrimidinone, 2,3-dihydro-6-methyl-2-thioxo-",433.95,1,Cc1cc(=O)[nH]c(=S)[nH]1,le15,0,0,0,0,randonly selected as training point or test point
1methylnaphthalene,355.0,1,Cc1cccc2ccccc12,le15,0,0,0,0,randonly selected as training point or test point
2methylnaphthalene,370.0,1,Cc1ccc2ccccc2c1,le15,0,0,0,0,randonly selected as training point or test point
"2-Propenoic acid, 2-methyl-, 2-methylpropyl ester",319.15,1,C=C(C)C(=O)OCC(C)C,le15,0,0,0,1,randonly selected as training point or test point
"2-Propenoic acid, 2-methyl-, butyl ester",323.75,1,C=C(C)C(=O)OCCCC,le15,0,0,0,1,randonly selected as training point or test point
"2(3H)-Furanone, dihydro-5-butyl-",365.05,1,CCCCC1CCC(=O)O1,le15,0,0,0,0,randonly selected as training point or test point
"3-Hexyne-2,5-diol, 2,5-dimethyl-",359.15,1,CC(C)(O)C#CC(C)(C)O,le15,0,0,0,0,randonly selected as training point or test point
"2-Propenoic acid, 2-methyl-, 1,1-dimethylethyl ester",314.25,1,C=C(C)C(=O)OC(C)(C)C,le15,0,0,0,1,randonly selected as training point or test point
"2H-Pyran-2-one, tetrahydro-6-propyl-",398.15,1,CCCC1CCCC(=O)O1,le15,0,0,0,0,randonly selected as training point or test point
1-methylcyclohexane-1-carboxylic acid,387.15,1,CC1(C(=O)O)CCCCC1,le15,0,0,0,1,randonly selected as training point or test point
1-(1-hydroxycyclohexyl)ethanone,369.05,1,CC(=O)C1(O)CCCCC1,le15,0,0,0,0,randonly selected as training point or test point
ethyl (E)-hex-2-enoate,335.45,1,CCC/C=C/C(=O)OCC,le15,0,0,0,0,randonly selected as training point or test point
"Cyclohex-2-ene-1,1-dimethanol",378.15,1,OCC1(CO)C=CCCC1,le15,0,0,0,0,randonly selected as training point or test point
"Oxirane, 2,2'-(1,4-butanediyl)bis- (9CI)",370.95,1,C(CCC1CO1)CC1CO1,le15,0,0,0,0,randonly selected as training point or test point
"2-Hexen-1-ol, acetate, (2E)-",331.15,1,CCC/C=C/COC(C)=O,le15,0,0,0,0,randonly selected as training point or test point