compound,flashpoint,pure substance,smiles,source,is_silicon,is_metallic,is_tin,is_acid,data type
ethoxy(trioxido)silane,310.15,1,CCO[Si]([O-])([O-])[O-],pubchem,1,1,0,0,randonly selected as training point or test point
"InChI=1S/C9H12.H2O2/c1-8(2)9-6-4-3-5-7-9;1-2/h3-8H,1-2H3;1-2H/p-1",352.15,1,CC(C)C1=CC=CC=C1.O[O-],pubchem,0,0,0,0,randonly selected as training point or test point
3-[3-[4-(4-bromophenyl)phenyl]-3-hydroxy-1-phenylpropyl]-4-hydroxychromen-2-one,491.15,1,C1=CC=C(C=C1)C(CC(C2=CC=C(C=C2)C3=CC=C(C=C3)Br)O)C4=C(C5=CC=CC=C5OC4=O)O,pubchem,0,0,0,0,randonly selected as training point or test point
"2,3-dimethylaniline;2,4-dimethylaniline;2,5-dimethylaniline;2,6-dimethylaniline;3,4-dimethylaniline;3,5-dimethylaniline",370.15,1,CC1=CC(=C(C=C1)N)C.CC1=CC(=C(C=C1)C)N.CC1=C(C(=CC=C1)N)C.CC1=C(C(=CC=C1)C)N.CC1=C(C=C(C=C1)N)C.CC1=CC(=CC(=C1)N)C,pubchem,0,0,0,0,randonly selected as training point or test point
[4-(hydroxymethyl)cyclohexyl]methanol,439.15,1,C1CC(CCC1CO)CO.C1CC(CCC1CO)CO,pubchem,0,0,0,0,randonly selected as training point or test point
"2,3-bis[8-[3-[(3-pentyloxiran-2-yl)methyl]oxiran-2-yl]octanoyloxy]propyl 8-[3-[(3-pentyloxiran-2-yl)methyl]oxiran-2-yl]octanoate",580.15,1,CCCCCC1C(O1)CC2C(O2)CCCCCCCC(=O)OCC(COC(=O)CCCCCCCC3C(O3)CC4C(O4)CCCCC)OC(=O)CCCCCCCC5C(O5)CC6C(O6)CCCCC,pubchem,0,0,0,0,randonly selected as training point or test point
"(1R,2R,3S,6S,7R,8R,9S,11R)-3,4,5,6,13,13-hexachloro-10-oxapentacyclo[6.3.1.13,6.02,7.09,11]tridec-4-ene",300.15,1,C1C2C3C(C1C4C2O4)C5(C(=C(C3(C5(Cl)Cl)Cl)Cl)Cl)Cl,pubchem,0,0,0,0,randonly selected as training point or test point
methoxy(dioxido)borane,266.15,1,B([O-])([O-])OC,pubchem,0,1,0,0,randonly selected as training point or test point
copper;3-(4-ethylcyclohexyl)propanoate;3-(3-ethylcyclopentyl)propanoate,311.15,1,CCC1CCC(CC1)CCC(=O)[O-].CCC1CCC(C1)CCC(=O)[O-].[Cu+2],pubchem,0,1,0,0,randonly selected as training point or test point
"(2-methyl-3-phenylphenyl)methyl (3S)-3-[(Z)-2-chloro-3,3,3-trifluoroprop-1-enyl]-2,2-dimethylcyclopropane-1-carboxylate",438.15,1,CC1=C(C=CC=C1COC(=O)C2C(C2(C)C)C=C(C(F)(F)F)Cl)C3=CC=CC=C3,pubchem,0,0,0,0,randonly selected as training point or test point
"1-hydroperoxy-3,5-di(propan-2-yl)benzene",352.15,1,CC(C)C1=CC(=CC(=C1)OO)C(C)C,pubchem,0,0,0,0,randonly selected as training point or test point
2-ethylsulfinyl-4-(3-prop-2-ynoxyphenyl)-6-(trifluoromethyl)pyrimidine,513.15,1,CCS(=O)C1=NC(=CC(=N1)C(F)(F)F)C2=CC(=CC=C2)OCC#C,pubchem,0,0,0,0,randonly selected as training point or test point
"[(1R,5S)-7-chloro-6-bicyclo[3.2.0]hepta-2,6-dienyl] dimethyl phosphate",438.15,1,COP(=O)(OC)OC1=C(C2C1CC=C2)Cl,pubchem,0,0,0,0,randonly selected as training point or test point
"(3,4,5-trihydroxybenzoyl)oxy 2-(2-ethylhexyl)-3,4,5-trihydroxybenzenecarboperoxoate",505.15,1,CCCCC(CC)CC1=C(C(=C(C=C1C(=O)OOOC(=O)C2=CC(=C(C(=C2)O)O)O)O)O)O,pubchem,0,0,0,0,randonly selected as training point or test point
"(1S,2R,6S,7R)-4-(2-ethylhexyl)-4-azatricyclo[5.2.1.02,6]dec-8-ene-3,5-dione",450.15,1,CCCCC(CC)CN1C(=O)C2C3CC(C2C1=O)C=C3,pubchem,0,0,0,0,randonly selected as training point or test point
"(1R,2R,6S,7S,8S,9S,11R)-3,4,5,6,13,13-hexachloro-10-oxapentacyclo[6.3.1.13,6.02,7.09,11]tridec-4-ene",300.15,1,C1C2C3C(C1C4C2O4)C5(C(=C(C3(C5(Cl)Cl)Cl)Cl)Cl)Cl,pubchem,0,0,0,0,randonly selected as training point or test point
"(1S,4R)-5-ethylidenebicyclo[2.2.1]hept-2-ene",299.15,1,CC=C1CC2CC1C=C2,pubchem,0,0,0,0,randonly selected as training point or test point
"[2,3-dihydroxy-5-[[(2R,3R,4R,5R,6S)-3,4,5,6-tetrakis[[3,4-dihydroxy-5-(3,4,5-trihydroxybenzoyl)oxybenzoyl]oxy]oxan-2-yl]methoxycarbonyl]phenyl] 3,4,5-trihydroxybenzoate",472.15,1,C1=C(C=C(C(=C1O)O)O)C(=O)OC2=CC(=CC(=C2O)O)C(=O)OCC3C(C(C(C(O3)OC(=O)C4=CC(=C(C(=C4)OC(=O)C5=CC(=C(C(=C5)O)O)O)O)O)OC(=O)C6=CC(=C(C(=C6)OC(=O)C7=CC(=C(C(=C7)O)O)O)O)O)OC(=O)C8=CC(=C(C(=C8)OC(=O)C9=CC(=C(C(=C9)O)O)O)O)O)OC(=O)C1=CC(=C(C(=C1)OC(=O)C1=CC(=C(C(=C1)O)O)O)O)O,pubchem,0,0,0,0,randonly selected as training point or test point
"(10E,14E,18E)-2,6,10,15,19,23-hexamethyltetracosa-2,6,10,14,18,22-hexaene",383.15,1,CC(=CCCC(=CCCC(=CCCC=C(C)CCC=C(C)CCC=C(C)C)C)C)C,pubchem,0,0,0,0,randonly selected as training point or test point
"(1S,7S)-1,3,4,7,8,9,10,10-octachlorotricyclo[5.2.1.02,6]dec-8-ene",380.15,1,C1C2C(C(C1Cl)Cl)C3(C(=C(C2(C3(Cl)Cl)Cl)Cl)Cl)Cl,pubchem,0,0,0,0,randonly selected as training point or test point
"(1R,2R,3S,6R,7S,8R,9R,11S)-3,4,5,6,13,13-hexachloro-10-oxapentacyclo[6.3.1.13,6.02,7.09,11]tridec-4-ene",300.15,1,C1C2C3C(C1C4C2O4)C5(C(=C(C3(C5(Cl)Cl)Cl)Cl)Cl)Cl,pubchem,0,0,0,0,randonly selected as training point or test point
"[(1S,2S,6R,10S,11R,13S)-13-acetyloxy-1,6-dihydroxy-8-(hydroxymethyl)-4,12,12,15-tetramethyl-5-oxo-14-tetracyclo[8.5.0.02,6.011,13]pentadeca-3,8-dienyl] tetradecanoate",310.15,1,CCCCCCCCCCCCCC(=O)OC1C(C2(C(C=C(CC3(C2C=C(C3=O)C)O)CO)C4C1(C4(C)C)OC(=O)C)O)C,pubchem,0,0,0,0,randonly selected as training point or test point
"[(2R,3S,5R)-3-hydroxy-5-(6-oxo-1H-purin-9-yl)oxolan-2-yl]methyl phosphono hydrogen phosphate",502.15,1,C1C(C(OC1N2C=NC3=C2N=CNC3=O)COP(=O)(O)OP(=O)(O)O)O,pubchem,0,0,0,0,randonly selected as training point or test point
2-[(E)-N-[(E)-3-chloroprop-2-enoxy]-C-ethylcarbonimidoyl]-5-(2-ethylsulfanylpropyl)-3-hydroxycyclohex-2-en-1-one,345.15,1,CCC(=NOCC=CCl)C1=C(CC(CC1=O)CC(C)SCC)O,pubchem,0,0,0,0,randonly selected as training point or test point
"[[(2R,3S,5R)-3-hydroxy-5-(6-oxo-1H-purin-9-yl)oxolan-2-yl]methoxy-oxidophosphoryl] phosphate",502.15,1,C1C(C(OC1N2C=NC3=C2N=CNC3=O)COP(=O)([O-])OP(=O)([O-])[O-])O,pubchem,0,0,0,0,randonly selected as training point or test point
pentane,233.0,1,CCCCC,carroll11,0,0,0,0,randonly selected as training point or test point
hexane,247.0,1,CCCCCC,carroll11,0,0,0,0,randonly selected as training point or test point
heptane,269.0,1,CCCCCCC,carroll11,0,0,0,0,randonly selected as training point or test point
octane,286.0,1,CCCCCCCC,carroll11,0,0,0,0,randonly selected as training point or test point
nonane,304.0,1,CCCCCCCCC,carroll11,0,0,0,0,randonly selected as training point or test point
decane,319.0,1,CCCCCCCCCC,carroll11,0,0,0,0,randonly selected as training point or test point
undecane,333.0,1,CCCCCCCCCCC,carroll11,0,0,0,0,randonly selected as training point or test point
dodecane,344.0,1,CCCCCCCCCCCC,carroll11,0,0,0,0,randonly selected as training point or test point
tridecane,367.0,1,CCCCCCCCCCCCC,carroll11,0,0,0,0,randonly selected as training point or test point
tetradecane,373.0,1,CCCCCCCCCCCCCC,carroll11,0,0,0,0,randonly selected as training point or test point
pentadecane,388.0,1,CCCCCCCCCCCCCCC,carroll11,0,0,0,0,randonly selected as training point or test point
hexadecane,408.0,1,CCCCCCCCCCCCCCCC,carroll11,0,0,0,0,randonly selected as training point or test point
heptadecane,421.0,1,CCCCCCCCCCCCCCCCC,carroll11,0,0,0,0,randonly selected as training point or test point
2-methylbutane,222.0,1,CC(C)CC,carroll11,0,0,0,0,randonly selected as training point or test point
2-methylpentane,241.0,1,CC(C)CCC,carroll11,0,0,0,0,randonly selected as training point or test point
2-methylheptane,277.0,1,CC(C)CCCCC,carroll11,0,0,0,0,randonly selected as training point or test point
2-methyloctane,297.0,1,CC(C)CCCCCC,carroll11,0,0,0,0,randonly selected as training point or test point
2-methylnonane,311.0,1,CC(C)CCCCCCC,carroll11,0,0,0,0,randonly selected as training point or test point
2-methyldecane,323.0,1,CC(C)CCCCCCCC,carroll11,0,0,0,0,randonly selected as training point or test point
2-methylundecane,334.0,1,CC(C)CCCCCCCCC,carroll11,0,0,0,0,randonly selected as training point or test point
2-methyldodecane,344.0,1,CC(C)CCCCCCCCCC,carroll11,0,0,0,0,randonly selected as training point or test point
cyclopentane,236.0,1,C1CCCC1,carroll11,0,0,0,0,randonly selected as training point or test point
"2,2-dimethylbutane",244.0,1,CC(C)(CC)C,carroll11,0,0,0,0,randonly selected as training point or test point
"2,3-dimethylbutane",244.0,1,CC(C)C(C)C,carroll11,0,0,0,0,randonly selected as training point or test point
methylcyclopentane,250.0,1,CC1CCCC1,carroll11,0,0,0,0,randonly selected as training point or test point
"2,2-dimethylpentane",250.0,1,CC(C)(CCC)C,carroll11,0,0,0,0,randonly selected as training point or test point
"2,2,3-trimethylbutane",249.0,1,CC(C)(C(C)C)C,carroll11,0,0,0,0,randonly selected as training point or test point
"2,4-dimethylpentane",261.0,1,CC(C)CC(C)C,carroll11,0,0,0,0,randonly selected as training point or test point
cyclohexane,255.0,1,C1CCCCC1,carroll11,0,0,0,0,randonly selected as training point or test point
"3,3-dimethylpentane",254.0,1,CC(CC)(CC)C,carroll11,0,0,0,0,randonly selected as training point or test point
"1,1-dimethylcyclopentane",257.0,1,CC1(CCCC1)C,carroll11,0,0,0,0,randonly selected as training point or test point
"2,3-dimethylpentane",258.0,1,CC(C)C(CC)C,carroll11,0,0,0,0,randonly selected as training point or test point
3-methylpentane,241.0,1,CC(CC)CC,carroll11,0,0,0,0,randonly selected as training point or test point
3-methylhexane,258.0,1,CC(CC)CCC,carroll11,0,0,0,0,randonly selected as training point or test point
3-methylheptane,279.0,1,CC(CC)CCCC,carroll11,0,0,0,0,randonly selected as training point or test point
3-methyloctane,297.0,1,CC(CC)CCCCC,carroll11,0,0,0,0,randonly selected as training point or test point
3-methylnonane,314.0,1,CC(CC)CCCCCC,carroll11,0,0,0,0,randonly selected as training point or test point
3-ethylpentane,261.0,1,C(C)C(CC)CC,carroll11,0,0,0,0,randonly selected as training point or test point
"2,2,4-trimethylpentane",266.0,1,CC(C)(CC(C)C)C,carroll11,0,0,0,0,randonly selected as training point or test point
"cis-1,2-dimethylcyclopentane",269.0,1,C[C@H]1[C@H](CCC1)C,carroll11,0,0,0,0,randonly selected as training point or test point
methylcyclohexane,269.0,1,CC1CCCCC1,carroll11,0,0,0,0,randonly selected as training point or test point
ethylcyclopentane,269.0,1,C(C)C1CCCC1,carroll11,0,0,0,0,randonly selected as training point or test point
"2,2-dimethylhexane",270.0,1,CC(C)(CCCC)C,carroll11,0,0,0,0,randonly selected as training point or test point
"2,2,3,3-tetramethylbutane",273.0,1,CC(C)(C(C)(C)C)C,carroll11,0,0,0,0,randonly selected as training point or test point
"2,5-dimethylhexane",271.0,1,CC(C)CCC(C)C,carroll11,0,0,0,0,randonly selected as training point or test point
"2,2,3-trimethylpentane",270.0,1,CC(C)(C(CC)C)C,carroll11,0,0,0,0,randonly selected as training point or test point
"3,3-dimethylhexane",272.0,1,CC(CC)(CCC)C,carroll11,0,0,0,0,randonly selected as training point or test point
"2,3,4-trimethylpentane",273.0,1,CC(C)C(C(C)C)C,carroll11,0,0,0,0,randonly selected as training point or test point
"2,3,3-trimethylpentane",278.0,1,CC(C)C(CC)(C)C,carroll11,0,0,0,0,randonly selected as training point or test point
3-ethyl-2-methylpentane,276.0,1,C(C)C(C(C)C)CC,carroll11,0,0,0,0,randonly selected as training point or test point
"2,3-dimethylhexane",278.0,1,CC(C)C(CCC)C,carroll11,0,0,0,0,randonly selected as training point or test point
"3,4-dimethylhexane",279.0,1,CC(CC)C(CC)C,carroll11,0,0,0,0,randonly selected as training point or test point
4-methylheptane,278.0,1,CC(CCC)CCC,carroll11,0,0,0,0,randonly selected as training point or test point
3-ethyl-3-methylpentane,276.0,1,C(C)C(CC)(CC)C,carroll11,0,0,0,0,randonly selected as training point or test point
3-ethylhexane,278.0,1,C(C)C(CC)CCC,carroll11,0,0,0,0,randonly selected as training point or test point
cycloheptane,279.0,1,C1CCCCCC1,carroll11,0,0,0,0,randonly selected as training point or test point
"trans-1,4-dimethylcyclohexane",279.0,1,C[C@@H]1CC[C@H](CC1)C,carroll11,0,0,0,0,randonly selected as training point or test point
"cis-1,3-dimethylcyclohexane",279.0,1,C[C@@H]1C[C@@H](CCC1)C,carroll11,0,0,0,0,randonly selected as training point or test point
"1,1-dimethylcyclohexane",280.0,1,CC1(CCCCC1)C,carroll11,0,0,0,0,randonly selected as training point or test point
"2,2,4,4-tetramethylpentane",279.0,1,CC(C)(CC(C)(C)C)C,carroll11,0,0,0,0,randonly selected as training point or test point
1-ethyl-1-methylcyclopentane,279.0,1,C(C)C1(CCCC1)C,carroll11,0,0,0,0,randonly selected as training point or test point
"2,2,5-trimethylhexane",286.0,1,CC(C)(CCC(C)C)C,carroll11,0,0,0,0,randonly selected as training point or test point
"trans-1,3-dimethylcyclohexane",281.0,1,C[C@@H]1C[C@H](CCC1)C,carroll11,0,0,0,0,randonly selected as training point or test point
"cis-1,4-dimethylcyclohexane",279.0,1,C[C@@H]1CC[C@@H](CC1)C,carroll11,0,0,0,0,randonly selected as training point or test point
isopropylcyclopentane,287.0,1,C(C)(C)C1CCCC1,carroll11,0,0,0,0,randonly selected as training point or test point
"2,2,4-trimethylhexane",286.0,1,CC(C)(CC(CC)C)C,carroll11,0,0,0,0,randonly selected as training point or test point
"cis-1,2-dimethylcyclohexane",285.0,1,C[C@H]1[C@H](CCCC1)C,carroll11,0,0,0,0,randonly selected as training point or test point
"2,4,4-trimethylhexane",288.0,1,CC(C)CC(CC)(C)C,carroll11,0,0,0,0,randonly selected as training point or test point
"2,3,5-trimethylhexane",288.0,1,CC(C)C(CC(C)C)C,carroll11,0,0,0,0,randonly selected as training point or test point
propylcyclopentane,289.0,1,C(CC)C1CCCC1,carroll11,0,0,0,0,randonly selected as training point or test point
ethylcyclohexane,291.0,1,C(C)C1CCCCC1,carroll11,0,0,0,0,randonly selected as training point or test point
"2,2,3,4-tetramethylpentane",284.0,1,CC(C)(C(C(C)C)C)C,carroll11,0,0,0,0,randonly selected as training point or test point
"2,4-dimethylheptane",288.0,1,CC(C)CC(CCC)C,carroll11,0,0,0,0,randonly selected as training point or test point
"2,2-dimethylheptane",297.0,1,CC(C)(CCCCC)C,carroll11,0,0,0,0,randonly selected as training point or test point
"3-ethyl-2,2-dimethylpentane",286.0,1,C(C)C(C(C)(C)C)CC,carroll11,0,0,0,0,randonly selected as training point or test point
"2,2,3-trimethylhexane",288.0,1,CC(C)(C(CCC)C)C,carroll11,0,0,0,0,randonly selected as training point or test point
"4,4-dimethylheptane",288.0,1,CC(CCC)(CCC)C,carroll11,0,0,0,0,randonly selected as training point or test point
"2,5-dimethylheptane",288.0,1,CC(C)CCC(CC)C,carroll11,0,0,0,0,randonly selected as training point or test point
"2,6-dimethylheptane",299.0,1,CC(C)CCCC(C)C,carroll11,0,0,0,0,randonly selected as training point or test point
"3,5-dimethylheptane",288.0,1,CC(CC)CC(CC)C,carroll11,0,0,0,0,randonly selected as training point or test point
"3-ethyl-2,4-dimethylpentane",288.0,1,C(C)C(C(C)C)C(C)C,carroll11,0,0,0,0,randonly selected as training point or test point
"2,2,5,5-tetramethylhexane",289.0,1,CC(C)(CCC(C)(C)C)C,carroll11,0,0,0,0,randonly selected as training point or test point
"2,3,3-trimethylhexane",288.0,1,CC(C)C(CCC)(C)C,carroll11,0,0,0,0,randonly selected as training point or test point
"2,3,4-trimethylhexane",288.0,1,CC(C)C(C(CC)C)C,carroll11,0,0,0,0,randonly selected as training point or test point
"2,3,3,4-tetramethylpentane",284.0,1,CC(C)C(C(C)C)(C)C,carroll11,0,0,0,0,randonly selected as training point or test point
"2,3-dimethylheptane",288.0,1,CC(C)C(CCCC)C,carroll11,0,0,0,0,randonly selected as training point or test point
"2,2,3,3-tetramethylpentane",289.0,1,CC(C)(C(CC)(C)C)C,carroll11,0,0,0,0,randonly selected as training point or test point
4-ethylheptane,288.0,1,C(C)C(CCC)CCC,carroll11,0,0,0,0,randonly selected as training point or test point
3-ethyl-4-methylhexane,288.0,1,C(C)C(CC)C(CC)C,carroll11,0,0,0,0,randonly selected as training point or test point
"3,4-dimethylheptane",288.0,1,CC(CC)C(CCC)C,carroll11,0,0,0,0,randonly selected as training point or test point
"3,3,4-trimethylhexane",288.0,1,CC(CC)(C(CC)C)C,carroll11,0,0,0,0,randonly selected as training point or test point
"3-ethyl-2,3-dimethylpentane",288.0,1,C(C)C(C(C)C)(CC)C,carroll11,0,0,0,0,randonly selected as training point or test point
4-methyloctane,295.0,1,CC(CCC)CCCC,carroll11,0,0,0,0,randonly selected as training point or test point
"3,3-diethylpentane",294.0,1,C(C)C(CC)(CC)CC,carroll11,0,0,0,0,randonly selected as training point or test point
"2,4,6-trimethylheptane",304.0,1,CC(C)CC(CC(C)C)C,carroll11,0,0,0,0,randonly selected as training point or test point
cyclooctane,301.0,1,C1CCCCCCC1,carroll11,0,0,0,0,randonly selected as training point or test point
"2,2,4,4-tetramethylhexane",304.0,1,CC(C)(CC(CC)(C)C)C,carroll11,0,0,0,0,randonly selected as training point or test point
"2,2-dimethyloctane",304.0,1,CC(C)(CCCCCC)C,carroll11,0,0,0,0,randonly selected as training point or test point
"2,2,3,4-tetramethylhexane",304.0,1,CC(C)(C(C(CC)C)C)C,carroll11,0,0,0,0,randonly selected as training point or test point
isopropylcyclohexane,308.0,1,C(C)(C)C1CCCCC1,carroll11,0,0,0,0,randonly selected as training point or test point
"3,3,5-trimethylheptane",304.0,1,CC(CC)(CC(CC)C)C,carroll11,0,0,0,0,randonly selected as training point or test point
"2,3,4,5-tetramethylhexane",304.0,1,CC(C)C(C(C(C)C)C)C,carroll11,0,0,0,0,randonly selected as training point or test point
propylcyclohexane,304.0,1,C(CC)C1CCCCC1,carroll11,0,0,0,0,randonly selected as training point or test point
butylcyclopentane,305.0,1,C(CCC)C1CCCC1,carroll11,0,0,0,0,randonly selected as training point or test point
3-ethyl-5-methylheptane,304.0,1,C(C)C(CC)CC(CC)C,carroll11,0,0,0,0,randonly selected as training point or test point
"2,6-dimethyloctane",307.0,1,CC(C)CCCC(CC)C,carroll11,0,0,0,0,randonly selected as training point or test point
"3-ethyl-2,2-dimethylhexane",311.0,1,C(C)C(C(C)(C)C)CCC,carroll11,0,0,0,0,randonly selected as training point or test point
"3,5-dimethyloctane",314.0,1,CC(CC)CC(CCC)C,carroll11,0,0,0,0,randonly selected as training point or test point
"2,2,3,3-tetramethylhexane",304.0,1,CC(C)(C(CCC)(C)C)C,carroll11,0,0,0,0,randonly selected as training point or test point
"3,3-dimethyloctane",314.0,1,CC(CC)(CCCCC)C,carroll11,0,0,0,0,randonly selected as training point or test point
"2,3,4,4-tetramethylhexane",304.0,1,CC(C)C(C(CC)(C)C)C,carroll11,0,0,0,0,randonly selected as training point or test point
4-propylheptane,308.0,1,C(CC)C(CCC)CCC,carroll11,0,0,0,0,randonly selected as training point or test point
4-ethyloctane,314.0,1,C(C)C(CCC)CCCC,carroll11,0,0,0,0,randonly selected as training point or test point
"3,4,5-trimethylheptane",304.0,1,CC(CC)C(C(CC)C)C,carroll11,0,0,0,0,randonly selected as training point or test point
"2,3-dimethyloctane",309.0,1,CC(C)C(CCCCC)C,carroll11,0,0,0,0,randonly selected as training point or test point
3-ethyl-3-methylheptane,314.0,1,C(C)C(CC)(CCCC)C,carroll11,0,0,0,0,randonly selected as training point or test point
"2,3,3,4-tetramethylhexane",304.0,1,CC(C)C(C(CC)C)(C)C,carroll11,0,0,0,0,randonly selected as training point or test point
5-methylnonane,310.0,1,CC(CCCC)CCCC,carroll11,0,0,0,0,randonly selected as training point or test point
4-methylnonane,311.0,1,CC(CCC)CCCCC,carroll11,0,0,0,0,randonly selected as training point or test point
4-ethyl-3-methylheptane,314.0,1,C(C)C(C(CC)C)CCC,carroll11,0,0,0,0,randonly selected as training point or test point
"3-ethyl-2,3,4-trimethylpentane",304.0,1,C(C)C(C(C)C)(C(C)C)C,carroll11,0,0,0,0,randonly selected as training point or test point
"3,3,4,4-tetramethylhexane",304.0,1,CC(CC)(C(CC)(C)C)C,carroll11,0,0,0,0,randonly selected as training point or test point
tert-butylcyclohexane,313.0,1,C(C)(C)(C)C1CCCCC1,carroll11,0,0,0,0,randonly selected as training point or test point
cyclononane,316.0,1,C1CCCCCCCC1,carroll11,0,0,0,0,randonly selected as training point or test point
butylcyclohexane,321.0,1,C(CCC)C1CCCCC1,carroll11,0,0,0,0,randonly selected as training point or test point
trans-decalin,326.0,1,C1CCC[C@@H]2CCCC[C@@H]12,carroll11,0,0,0,0,randonly selected as training point or test point
cis-decalin,330.0,1,C1CCC[C@@H]2CCCC[C@H]12,carroll11,0,0,0,0,randonly selected as training point or test point
cyclodecane,332.0,1,C1CCCCCCCCC1,carroll11,0,0,0,0,randonly selected as training point or test point
pentylcyclohexane,336.0,1,C(CCCC)C1CCCCC1,carroll11,0,0,0,0,randonly selected as training point or test point