compound,flashpoint,pure substance,smiles,source,is_silicon,is_metallic,is_tin,is_acid,data type
"4-Thiazolidinone, 3-amino-2-thioxo-",389.15,1,NN1C(=O)CSC1=S,le15,0,0,0,0,randonly selected as training point or test point
"N,N-dimethyl-N'-phenylmethanimidamide",359.85,1,CN(C)C=Nc1ccccc1,le15,0,0,0,0,randonly selected as training point or test point
"Ethanol, 2-(2-(1-methylethoxy)ethoxyl)-",354.05,1,CC(C)OCCOCCO,le15,0,0,0,0,randonly selected as training point or test point
Triethoxymethane,303.0,1,CCOC(OCC)OCC,le15,0,0,0,0,randonly selected as training point or test point
2-methyl-1-benzothiophene,345.55,1,Cc1cc2ccccc2s1,le15,0,0,0,0,randonly selected as training point or test point
"Sulfide, phenyl 2-propynyl (6CI,7CI,8CI)",349.85,1,C#CCSc1ccccc1,le15,0,0,0,0,randonly selected as training point or test point
"1-Octanol, 8-fluoro-",378.95,1,OCCCCCCCCF,le15,0,0,0,0,randonly selected as training point or test point
"Thiophene, tetrahydro-2,4-dimethyl-, 1,1-dioxide",418.75,1,CC1CC(C)S(=O)(=O)C1,le15,0,0,0,0,randonly selected as training point or test point
"1,2,3,4,5-pentamethylbenzene",364.25,1,Cc1cc(C)c(C)c(C)c1C,le15,0,0,0,0,randonly selected as training point or test point
1-tert-butyl-3-methylbenzene,333.65,1,Cc1cccc(C(C)(C)C)c1,le15,0,0,0,0,randonly selected as training point or test point
3-methylbutylbenzene,338.15,1,CC(C)CCc1ccccc1,le15,0,0,0,0,randonly selected as training point or test point
2-methylbutan-2-ylbenzene,332.45,1,CCC(C)(C)c1ccccc1,le15,0,0,0,0,randonly selected as training point or test point
"1,3-diethyl-5-methylbenzene",342.95,1,CCc1cc(C)cc(CC)c1,le15,0,0,0,0,randonly selected as training point or test point
pentan-2-ylbenzene,333.75,1,CCCC(C)c1ccccc1,le15,0,0,0,0,randonly selected as training point or test point
2-methylbutylbenzene,337.15,1,CCC(C)Cc1ccccc1,le15,0,0,0,0,randonly selected as training point or test point
1-ethyl-4-propan-2-ylbenzene,338.85,1,CCc1ccc(C(C)C)cc1,le15,0,0,0,0,randonly selected as training point or test point
"2,4-dimethyl-1-propan-2-ylbenzene",340.25,1,Cc1ccc(C(C)C)c(C)c1,le15,0,0,0,0,randonly selected as training point or test point
1-ethyl-3-propan-2-ylbenzene,335.95,1,CCc1cccc(C(C)C)c1,le15,0,0,0,0,randonly selected as training point or test point
1-methyl-4-(2-methylpropyl)benzene,340.45,1,Cc1ccc(CC(C)C)cc1,le15,0,0,0,0,randonly selected as training point or test point
"1-ethyl-2,4,5-trimethylbenzene",348.75,1,CCc1cc(C)c(C)cc1C,le15,0,0,0,0,randonly selected as training point or test point
1-methyl-2-(2-methylpropyl)benzene,341.75,1,Cc1ccccc1CC(C)C,le15,0,0,0,0,randonly selected as training point or test point
"Benzene, 1-methyl-4-(1,1-dimethylethyl)- (9CI)",327.55,1,Cc1ccc(C(C)(C)C)cc1,le15,0,0,0,0,randonly selected as training point or test point
3-methylbutan-2-ylbenzene,330.05,1,CC(C)C(C)c1ccccc1,le15,0,0,0,0,randonly selected as training point or test point
"Disulfide, 2-propenyl propyl",327.55,1,C=CCSSCCC,le15,0,0,0,0,randonly selected as training point or test point
"2-Propenoic acid, 2-methyl-, 2-chloroethyl ester",348.45,1,C=C(C)C(=O)OCCCl,le15,0,0,0,1,randonly selected as training point or test point
Heptanoyl chloride,330.15,1,CCCCCCC(=O)Cl,le15,0,0,0,0,randonly selected as training point or test point
"Heptane, 1-chloro-5-methyl-",325.65,1,CCC(C)CCCCCl,le15,0,0,0,0,randonly selected as training point or test point
"Heptane, 3-(chloromethyl)-",333.15,1,CCCCC(CC)CCl,le15,0,0,0,0,randonly selected as training point or test point
"Pyridazine, 3,6-dichloro-",421.05,1,Clc1ccc(Cl)nn1,le15,0,0,0,0,randonly selected as training point or test point
"Methanesulfonyl chloride, chloro-",346.55,1,O=S(=O)(Cl)CCl,le15,0,0,0,0,randonly selected as training point or test point
bromocyclopentane,308.15,1,BrC1CCCC1,le15,0,0,0,0,randonly selected as training point or test point
5-bromopent-1-ene,304.15,1,C=CCCCBr,le15,0,0,0,0,randonly selected as training point or test point
"2,2,3,3,3-pentafluoropropan-1-amine",322.65,1,NCC(F)(F)C(F)(F)F,le15,0,0,0,0,randonly selected as training point or test point
"Benzene, 1-ethenyl-4-nitro- (9CI)",358.45,1,C=Cc1ccc([N+](=O)[O-])cc1,le15,0,0,0,0,randonly selected as training point or test point
"Benzene, (2-nitroethenyl)-",390.65,1,O=[N+]([O-])C=Cc1ccccc1,le15,0,0,0,0,randonly selected as training point or test point
4-Hydroxy-3-methoxybenzonitrile,403.25,1,COc1cc(C#N)ccc1O,le15,0,0,0,0,randonly selected as training point or test point
"Adenine, N-methyl- (8CI)",525.05,1,CNc1ncnc2nc[nH]c12,le15,0,0,0,0,randonly selected as training point or test point
"Adenine, 9-methyl- (8CI)",460.357,1,Cn1cnc2c(N)ncnc21,le15,0,0,0,0,randonly selected as training point or test point
"Acetamide, N-methyl-N-phenyl-",366.35,1,CC(=O)N(C)c1ccccc1,le15,0,0,0,0,randonly selected as training point or test point
"N,N-dimethylbenzamide",385.05,1,CN(C)C(=O)c1ccccc1,le15,0,0,0,0,randonly selected as training point or test point
"Benzaldehyde, 4-(dimethylamino)-",376.45,1,CN(C)c1ccc(C=O)cc1,le15,0,0,0,0,randonly selected as training point or test point
ethyl N-phenylmethanimidate,344.15,1,CCOC=Nc1ccccc1,le15,0,0,0,0,randonly selected as training point or test point
"Ethanol, 2,2',2''-nitrilotris-",458.15,1,OCCN(CCO)CCO,le15,0,0,0,0,randonly selected as training point or test point
1-isothiocyanato-4-methylbenzene,373.65,1,Cc1ccc(N=C=S)cc1,le15,0,0,0,0,randonly selected as training point or test point
"Benzene, (isothiocyanatomethyl)-",373.55,1,S=C=NCc1ccccc1,le15,0,0,0,0,randonly selected as training point or test point
"Benzothiazole, 2-methyl-",375.15,1,Cc1nc2ccccc2s1,le15,0,0,0,0,randonly selected as training point or test point
Methionine,412.55,1,CSCC[C@H](N)C(=O)O,le15,0,0,0,0,randonly selected as training point or test point
"Methionine, L-",412.55,1,CSCC[C@H](N)C(=O)O,le15,0,0,0,0,randonly selected as training point or test point
"L-Cysteine, S-ethyl- (9CI)",401.85,1,CCSC[C@H](N)C(=O)O,le15,0,0,0,0,randonly selected as training point or test point
"Benzenamine, N,N-diethyl-",370.95,1,CCN(CC)c1ccccc1,le15,0,0,0,0,randonly selected as training point or test point
N-benzylpropan-2-amine,360.15,1,CC(C)NCc1ccccc1,le15,0,0,0,0,randonly selected as training point or test point
"Benzenamine, 4-butyl-",374.85,1,CCCCc1ccc(N)cc1,le15,0,0,0,0,randonly selected as training point or test point
2-methyl-1-phenylpropan-2-amine,366.25,1,CC(C)(N)Cc1ccccc1,le15,0,0,0,0,randonly selected as training point or test point
"Benzenamine, 2,6-diethyl-",396.45,1,CCc1cccc(CC)c1N,le15,0,0,0,0,randonly selected as training point or test point
"Benzenamine, 4-(1,1-dimethylethyl)-",374.15,1,CC(C)(C)c1ccc(N)cc1,le15,0,0,0,0,randonly selected as training point or test point
"Benzenamine, N-butyl-",380.15,1,CCCCNc1ccccc1,le15,0,0,0,0,randonly selected as training point or test point
"Benzenemethanamine, N,N,alpha-trimethyl- (9CI)",337.55,1,CC(c1ccccc1)N(C)C,le15,0,0,0,0,randonly selected as training point or test point
"2,6-Octadienenitrile, 3,7-dimethyl-, (2E)-",376.85,1,CC(C)=CCC/C(C)=C/C#N,le15,0,0,0,0,randonly selected as training point or test point
2-tert-butylaniline,372.85,1,CC(C)(C)c1ccccc1N,le15,0,0,0,0,randonly selected as training point or test point
4-phenylbutan-2-amine,370.95,1,CC(N)CCc1ccccc1,le15,0,0,0,0,randonly selected as training point or test point
4-(2-methylpropyl)aniline,375.85,1,CC(C)Cc1ccc(N)cc1,le15,0,0,0,0,randonly selected as training point or test point
"Benzenamine, 4-(1-methylpropyl)-",380.95,1,CCC(C)c1ccc(N)cc1,le15,0,0,0,0,randonly selected as training point or test point
2-pentan-3-ylpyridine,324.45,1,CCC(CC)c1ccccn1,le15,0,0,0,0,randonly selected as training point or test point
"1,2-Dithiolan-4-amine, N,N-dimethyl-",353.55,1,CN(C)C1CSSC1,le15,0,0,0,0,randonly selected as training point or test point
"Ethanol, 2,2,2-trichloro-",361.15,1,OCC(Cl)(Cl)Cl,le15,0,0,0,0,randonly selected as training point or test point
"Butanamide, 2-chloro-N-methyl-3-oxo-",398.75,1,CNC(=O)C(Cl)C(C)=O,le15,0,0,0,0,randonly selected as training point or test point
"Acetamide, 2-chloro-N,N-diethyl-",350.15,1,CCN(CC)C(=O)CCl,le15,0,0,0,0,randonly selected as training point or test point
"2,2,3,3,3-pentafluoropropan-1-ol",284.75,1,OCC(F)(F)C(F)(F)F,le15,0,0,0,0,randonly selected as training point or test point
"1,2,4,5-tetrafluorobenzene",289.15,1,Fc1cc(F)c(F)cc1F,le15,0,0,0,0,randonly selected as training point or test point
"1,2,3,4-tetrafluorobenzene",293.75,1,Fc1ccc(F)c(F)c1F,le15,0,0,0,0,randonly selected as training point or test point
"1,2,3,5-tetrafluorobenzene",277.55,1,Fc1cc(F)c(F)c(F)c1,le15,0,0,0,0,randonly selected as training point or test point
"(2R,3R)-2,3-dihydroxybutanedioic acid",482.55,1,O=C(O)[C@H](O)[C@@H](O)C(=O)O,le15,0,0,0,1,randonly selected as training point or test point
"Benzoic acid, 2-formyl-",435.75,1,O=Cc1ccccc1C(=O)O,le15,0,0,0,1,randonly selected as training point or test point
"1,3-Benzodioxole-5-carboxaldehyde",376.75,1,O=Cc1ccc2c(c1)OCO2,le15,0,0,0,0,randonly selected as training point or test point
4-formylbenzoic acid,442.35,1,O=Cc1ccc(C(=O)O)cc1,le15,0,0,0,1,randonly selected as training point or test point
L-Arabinopyranose,428.45,1,OC1OC[C@H](O)[C@H](O)[C@H]1O,le15,0,0,0,0,randonly selected as training point or test point
"Purine-2,6-diyldiamine",720.965,1,Nc1nc(N)c2[nH]cnc2n1,le15,0,0,0,0,randonly selected as training point or test point
methyl 2-methylbenzoate,355.35,1,COC(=O)c1ccccc1C,le15,0,0,0,0,randonly selected as training point or test point
methyl 3-methylbenzoate,368.75,1,COC(=O)c1cccc(C)c1,le15,0,0,0,0,randonly selected as training point or test point
"Benzoic acid, 4-methyl-, methyl ester",363.15,1,COC(=O)c1ccc(C)cc1,le15,0,0,0,1,randonly selected as training point or test point
"Acetic acid, phenyl-, methyl ester",367.05,1,COC(=O)Cc1ccccc1,le15,0,0,0,1,randonly selected as training point or test point
"Formic acid, 2-phenylethyl ester",392.25,1,O=COCCc1ccccc1,le15,0,0,0,1,randonly selected as training point or test point
(3-methylphenyl) acetate,358.35,1,CC(=O)Oc1cccc(C)c1,le15,0,0,0,0,randonly selected as training point or test point
"Acetic acid, phenylmethyl ester",375.35,1,CC(=O)OCc1ccccc1,le15,0,0,0,1,randonly selected as training point or test point
"Acetic acid, 4-methylphenyl ester",363.15,1,CC(=O)Oc1ccc(C)cc1,le15,0,0,0,1,randonly selected as training point or test point
Hydrocinnamic acid (8CI),443.195,1,O=C(O)CCc1ccccc1,le15,0,0,0,1,randonly selected as training point or test point
1-(3-methoxyphenyl)ethanone,364.35,1,COc1cccc(C(C)=O)c1,le15,0,0,0,0,randonly selected as training point or test point
"2,4-dimethylbenzoic acid",404.45,1,Cc1ccc(C(=O)O)c(C)c1,le15,0,0,0,1,randonly selected as training point or test point
2-ethoxybenzaldehyde,380.15,1,CCOc1ccccc1C=O,le15,0,0,0,0,randonly selected as training point or test point
1-phenoxypropan-2-one,358.15,1,CC(=O)COc1ccccc1,le15,0,0,0,0,randonly selected as training point or test point
(4-methylphenyl) acetate,446.65,1,CC(=O)Oc1ccc(C)cc1,le15,0,0,0,0,randonly selected as training point or test point
"2,6-dimethylbenzoic acid",399.25,1,Cc1cccc(C)c1C(=O)O,le15,0,0,0,1,randonly selected as training point or test point
"2,5-Cyclohexadiene-1,4-dione, 2,3,5-trimethyl-",350.45,1,CC1=CC(=O)C(C)=C(C)C1=O,le15,0,0,0,0,randonly selected as training point or test point
"1,2-Benzenediol, 4-(2-propenyl)-",414.85,1,C=CCc1ccc(O)c(O)c1,le15,0,0,0,0,randonly selected as training point or test point
1-(2-hydroxy-5-methylphenyl)ethanone,372.95,1,CC(=O)c1cc(C)ccc1O,le15,0,0,0,0,randonly selected as training point or test point
2-methoxy-1-phenylethanone,368.05,1,COCC(=O)c1ccccc1,le15,0,0,0,0,randonly selected as training point or test point
2-(4-methoxyphenyl)acetaldehyde,381.65,1,COc1ccc(CC=O)cc1,le15,0,0,0,0,randonly selected as training point or test point
"Benzaldehyde, 4-ethoxy-",348.15,1,CCOc1ccc(C=O)cc1,le15,0,0,0,0,randonly selected as training point or test point
3-ethoxybenzaldehyde,379.75,1,CCOc1cccc(C=O)c1,le15,0,0,0,0,randonly selected as training point or test point
"Propane, 1,2-epoxy-3-phenoxy-",367.907,1,c1ccc(OCC2CO2)cc1,le15,0,0,0,0,randonly selected as training point or test point
2-phenylpropanoic acid,421.15,1,CC(C(=O)O)c1ccccc1,le15,0,0,0,1,randonly selected as training point or test point
(2-methylphenyl) acetate,357.15,1,CC(=O)Oc1ccccc1C,le15,0,0,0,0,randonly selected as training point or test point
"Acetic acid, 2-phenylhydrazide",360.95,1,CC(=O)NNc1ccccc1,le15,0,0,0,1,randonly selected as training point or test point
"Benzenamine, N,N-dimethyl-4-nitroso-",383.45,1,CN(C)c1ccc(N=O)cc1,le15,0,0,0,0,randonly selected as training point or test point
"Urea, (phenylmethyl)- (9CI)",398.05,1,NC(=O)NCc1ccccc1,le15,0,0,0,0,randonly selected as training point or test point
"Acetic acid, phenyl-, hydrazide (8CI)",447.65,1,NNC(=O)Cc1ccccc1,le15,0,0,0,1,randonly selected as training point or test point
N-Methyl-N-nitroso-benzenemethanamine,407.25,1,CN(Cc1ccccc1)N=O,le15,0,0,0,0,randonly selected as training point or test point
"Urea, N-methyl-N'-phenyl- (9CI)",372.05,1,CNC(=O)Nc1ccccc1,le15,0,0,0,0,randonly selected as training point or test point
"Ethanol, 2,2'-(1,2-ethanediylbis(oxy))bis-",438.75,1,OCCOCCOCCO,le15,0,0,0,0,randonly selected as training point or test point
"Benzothiazole, 2-amino-",412.95,1,Nc1nc2ccccc2s1,le15,0,0,0,0,randonly selected as training point or test point
"Benzothiazole, 6-amino-",422.35,1,Nc1ccc2ncsc2c1,le15,0,0,0,0,randonly selected as training point or test point
"2H-Benzimidazole-2-thione, 1,3-dihydro-",390.65,1,S=c1[nH]c2ccccc2[nH]1,le15,0,0,0,0,randonly selected as training point or test point
"Butanoic acid, 2-hydroxy-4-(methylthio)-",418.35,1,CSCCC(O)C(=O)O,le15,0,0,0,1,randonly selected as training point or test point
"Propionic acid, 2-methyl-2-(methylsulfinyl)-",441.35,1,CS(=O)C(C)(C)C(=O)O,le15,0,0,0,1,randonly selected as training point or test point
"Phenol, 2-(1,1-dimethylethyl)-",383.15,1,CC(C)(C)c1ccccc1O,le15,0,0,0,0,randonly selected as training point or test point
"Phenol, 2-(1-methylpropyl)-",385.15,1,CCC(C)c1ccccc1O,le15,0,0,0,0,randonly selected as training point or test point
"Phenol, 5-methyl-2-(1-methylethyl)-",374.15,1,Cc1ccc(C(C)C)c(O)c1,le15,0,0,0,0,randonly selected as training point or test point
"Phenol, 4-(1,1-dimethylethyl)-",384.05,1,CC(C)(C)c1ccc(O)cc1,le15,0,0,0,0,randonly selected as training point or test point
"2-Cyclohexen-1-one, 2-methyl-5-(1-methylethenyl)-",362.05,1,C=C(C)C1CC=C(C)C(=O)C1,le15,0,0,0,0,randonly selected as training point or test point
"Phenol, 4-(1-methylpropyl)-",388.75,1,CCC(C)c1ccc(O)cc1,le15,0,0,0,0,randonly selected as training point or test point
"Phenethyl alcohol, alpha,alpha-dimethyl-",354.25,1,CC(C)(O)Cc1ccccc1,le15,0,0,0,0,randonly selected as training point or test point
"Benzene, 1-methoxy-4-propyl-",363.15,1,CCCc1ccc(OC)cc1,le15,0,0,0,0,randonly selected as training point or test point
"2,3,4,5-tetramethylphenol",389.75,1,Cc1cc(O)c(C)c(C)c1C,le15,0,0,0,0,randonly selected as training point or test point
"p-Mentha-3,8-diene, 3,9-epoxy- (8CI)",348.65,1,Cc1coc2c1CCC(C)C2,le15,0,0,0,0,randonly selected as training point or test point
"Phenol, 2-methyl-5-(1-methylethyl)-",379.85,1,Cc1ccc(C(C)C)cc1O,le15,0,0,0,0,randonly selected as training point or test point
"2,3,5,6-tetramethylphenol",384.75,1,Cc1cc(C)c(C)c(O)c1C,le15,0,0,0,0,randonly selected as training point or test point
"Benzenemethanol, 4-(1-methylethyl)-",379.15,1,CC(C)c1ccc(CO)cc1,le15,0,0,0,0,randonly selected as training point or test point
3-(4-methylpent-3-enyl)furan,329.05,1,CC(C)=CCCc1ccoc1,le15,0,0,0,0,randonly selected as training point or test point
"Bicyclo(3.1.1)hept-2-ene-2-carboxaldehyde, 6,6-dimethyl-",352.05,1,CC1(C)C2CC=C(C=O)C1C2,le15,0,0,0,0,randonly selected as training point or test point
"Phenol, 3-(1,1-dimethylethyl)-",382.65,1,CC(C)(C)c1cccc(O)c1,le15,0,0,0,0,randonly selected as training point or test point
"Tricyclo(3.3.1.13,7)decanone (9CI)",368.85,1,O=C1C2CC3CC(C2)CC1C3,le15,0,0,0,0,randonly selected as training point or test point
n-Butyl phenyl ether,355.15,1,CCCCOc1ccccc1,le15,0,0,0,0,randonly selected as training point or test point
"(1S,5S)-2,6,6-trimethylbicyclo[3.1.1]hept-2-en-4-one",358.15,1,CC1=CC(=O)[C@H]2C[C@@H]1C2(C)C,le15,0,0,0,0,randonly selected as training point or test point
"Benzenemethanol, alpha-ethyl-alpha-methyl-",363.75,1,CCC(C)(O)c1ccccc1,le15,0,0,0,0,randonly selected as training point or test point
1-ethoxy-4-ethylbenzene,355.45,1,CCOc1ccc(CC)cc1,le15,0,0,0,0,randonly selected as training point or test point
2-methyl-4-propan-2-ylphenol,377.25,1,Cc1cc(C(C)C)ccc1O,le15,0,0,0,0,randonly selected as training point or test point
4-prop-1-en-2-ylcyclohexene-1-carbaldehyde,368.75,1,C=C(C)C1CC=C(C=O)CC1,le15,0,0,0,0,randonly selected as training point or test point
"2-Cyclohexen-1-one, 2-methyl-5-(1-methylethenyl)-, (5S)-",370.15,1,C=C(C)[C@H]1CC=C(C)C(=O)C1,le15,0,0,0,0,randonly selected as training point or test point
"Benzenepropanol, gamma-methyl-",375.25,1,CC(CCO)c1ccccc1,le15,0,0,0,0,randonly selected as training point or test point
3-methyl-4-propan-2-ylphenol,377.25,1,Cc1cc(O)ccc1C(C)C,le15,0,0,0,0,randonly selected as training point or test point
2-methyl-6-propan-2-ylphenol,368.75,1,Cc1cccc(C(C)C)c1O,le15,0,0,0,0,randonly selected as training point or test point
"2,3,4,6-tetramethylphenol",383.95,1,Cc1cc(C)c(O)c(C)c1C,le15,0,0,0,0,randonly selected as training point or test point
"4,7-Methano-1H-inden-6-ol, 3a,4,5,6,7,7a-hexahydro-",363.35,1,OC1CC2CC1C1CC=CC21,le15,0,0,0,0,randonly selected as training point or test point
4-methyl-2-propan-2-ylphenol,371.25,1,Cc1ccc(O)c(C(C)C)c1,le15,0,0,0,0,randonly selected as training point or test point
"2-Cyclohexen-1-one, 2-methyl-5-(1-methylethenyl)-, (R)- (9CI)",361.15,1,C=C(C)[C@@H]1CC=C(C)C(=O)C1,le15,0,0,0,0,randonly selected as training point or test point
butan-2-yloxybenzene,344.75,1,CCC(C)Oc1ccccc1,le15,0,0,0,0,randonly selected as training point or test point
"Benzenemethanol, alpha,alpha,4-trimethyl-",375.85,1,Cc1ccc(C(C)(C)O)cc1,le15,0,0,0,0,randonly selected as training point or test point
4-butylphenol,394.65,1,CCCCc1ccc(O)cc1,le15,0,0,0,0,randonly selected as training point or test point
4-phenylbutan-2-ol,383.15,1,CC(O)CCc1ccccc1,le15,0,0,0,0,randonly selected as training point or test point
3-methyl-5-propan-2-ylphenol,381.45,1,Cc1cc(O)cc(C(C)C)c1,le15,0,0,0,0,randonly selected as training point or test point
"1-Butanol, 4-phenyl- (8CI)",387.45,1,OCCCCc1ccccc1,le15,0,0,0,0,randonly selected as training point or test point
3-butylphenol,395.85,1,CCCCc1cccc(O)c1,le15,0,0,0,0,randonly selected as training point or test point
"2,6,6-trimethylbicyclo[3.1.1]hept-2-en-4-one",358.15,1,CC1=CC(=O)C2CC1C2(C)C,le15,0,0,0,0,randonly selected as training point or test point
2-methyl-5-propan-2-ylbicyclo[3.1.0]hex-2-en-4-one,358.35,1,CC1=CC(=O)C2(C(C)C)CC12,le15,0,0,0,0,randonly selected as training point or test point
Carvacrol,379.0,1,Cc1ccc(C(C)C)cc1O,le15,0,0,0,0,randonly selected as training point or test point
"Hydrazine, (1-methyl-2-phenylethyl)- (9CI)",421.15,1,CC(Cc1ccccc1)NN,le15,0,0,0,0,randonly selected as training point or test point
"2,4-Mesitylenediamine (7CI,8CI)",431.55,1,Cc1cc(C)c(N)c(C)c1N,le15,0,0,0,0,randonly selected as training point or test point
(Allylthio)benzene,351.968,1,C=CCSc1ccccc1,le15,0,0,0,0,randonly selected as training point or test point
Propyl sulfone (8CI),398.95,1,CCCS(=O)(=O)CCC,le15,0,0,0,0,randonly selected as training point or test point
"3H-1,2,4-Dithiazole-3-thione, 5-amino- (8CI)(9CI)",397.15,1,Nc1nc(=S)ss1,le15,0,0,0,0,randonly selected as training point or test point
ethyl(trimethoxy)silane,297.35,1,CC[Si](OC)(OC)OC,le15,1,1,0,0,randonly selected as training point or test point
trimethyl(phenyl)silane,317.15,1,C[Si](C)(C)c1ccccc1,le15,1,1,0,0,randonly selected as training point or test point
Propyl disulfide (8CI),339.25,1,CCCSSCCC,le15,0,0,0,0,randonly selected as training point or test point