compound,flashpoint,pure substance,smiles,source,is_silicon,is_metallic,is_tin,is_acid,data type
4-Pyridinecarboxylic acid,466.45,1,O=C(O)c1ccncc1,le15,0,0,0,1,randonly selected as training point or test point
2-Pyrazinecarboxamide,443.05,1,NC(=O)c1cnccn1,le15,0,0,0,0,randonly selected as training point or test point
"Benzenamine, 2-methoxy-",380.15,1,COc1ccccc1N,le15,0,0,0,0,randonly selected as training point or test point
2-(2-Pyridyl)ethanol,365.95,1,OCCc1ccccn1,le15,0,0,0,0,randonly selected as training point or test point
"Phenol, 4-(methylamino)- (9CI)",421.75,1,CNc1ccc(O)cc1,le15,0,0,0,0,randonly selected as training point or test point
"Benzenamine, 3-methoxy-",382.75,1,COc1cccc(N)c1,le15,0,0,0,0,randonly selected as training point or test point
"Benzenemethanol, 3-amino- (9CI)",402.75,1,Nc1cccc(CO)c1,le15,0,0,0,0,randonly selected as training point or test point
"Phenol, 5-amino-2-methyl-",389.45,1,Cc1ccc(N)cc1O,le15,0,0,0,0,randonly selected as training point or test point
"Phenol, 2-amino-3-methyl-",372.05,1,Cc1cccc(O)c1N,le15,0,0,0,0,randonly selected as training point or test point
"Phenol, 2-amino-5-methyl-",372.95,1,Cc1ccc(N)c(O)c1,le15,0,0,0,0,randonly selected as training point or test point
4-Pyridineethanol,374.65,1,OCCc1ccncc1,le15,0,0,0,0,randonly selected as training point or test point
"Benzenemethanol, 2-amino-",399.45,1,Nc1ccccc1CO,le15,0,0,0,0,randonly selected as training point or test point
"p-Cresol, 2-amino- (8CI)",371.75,1,Cc1ccc(O)c(N)c1,le15,0,0,0,0,randonly selected as training point or test point
"Benzenamine, 4-methoxy-",377.65,1,COc1ccc(N)cc1,le15,0,0,0,0,randonly selected as training point or test point
"Ethanone, 1-(1-methyl-1H-pyrrol-2-yl)-",349.35,1,CC(=O)c1cccn1C,le15,0,0,0,0,randonly selected as training point or test point
"3-ethyl-2,4-dimethyl-1H-pyrrole",344.15,1,CCc1c(C)c[nH]c1C,le15,0,0,0,0,randonly selected as training point or test point
1-butylpyrrole,330.05,1,CCCCn1cccc1,le15,0,0,0,0,randonly selected as training point or test point
"Propane, 2-chloro-2-nitro-",310.55,1,CC(C)(Cl)[N+](=O)[O-],le15,0,0,0,0,randonly selected as training point or test point
2-chloro-1-nitropropane,332.95,1,CC(Cl)C[N+](=O)[O-],le15,0,0,0,0,randonly selected as training point or test point
"Propane, 1-chloro-2-nitro-",332.95,1,CC(CCl)[N+](=O)[O-],le15,0,0,0,0,randonly selected as training point or test point
"Propionitrile, 2,3-dichloro- (6CI,7CI,8CI)",357.05,1,N#CC(Cl)CCl,le15,0,0,0,0,randonly selected as training point or test point
"Phosphorous acid, trimethyl ester",356.85,1,COP(OC)OC,le15,0,0,0,1,randonly selected as training point or test point
"Phosphonic acid, methyl-, dimethyl ester",342.05,1,COP(C)(=O)OC,le15,0,0,0,1,randonly selected as training point or test point
"Methanol, phosphinidynetri- (7CI,8CI)",415.45,1,OCP(CO)CO,le15,0,0,0,0,randonly selected as training point or test point
Trimethylphosphite,300.0,1,COP(OC)OC,le15,0,0,0,0,randonly selected as training point or test point
"Acetic acid, 2,2-difluoro-, ethyl ester",298.15,1,CCOC(=O)C(F)F,le15,0,0,0,1,randonly selected as training point or test point
benzoyl fluoride,327.45,1,O=C(F)c1ccccc1,le15,0,0,0,0,randonly selected as training point or test point
"Benzaldehyde, m-fluoro- (8CI)",329.85,1,O=Cc1cccc(F)c1,le15,0,0,0,0,randonly selected as training point or test point
"Benzaldehyde, p-fluoro- (8CI)",329.85,1,O=Cc1ccc(F)cc1,le15,0,0,0,0,randonly selected as training point or test point
"Benzaldehyde, o-fluoro- (8CI)",328.15,1,O=Cc1ccccc1F,le15,0,0,0,0,randonly selected as training point or test point
"1,3,2-Dioxathiolane, 2,2-dioxide",366.65,1,O=S1(=O)OCCO1,le15,0,0,0,0,randonly selected as training point or test point
"Phenol, 2-methoxy-",355.35,1,COc1ccccc1O,le15,0,0,0,0,randonly selected as training point or test point
"1,4-Benzenediol, 2-methyl-",413.35,1,Cc1cc(O)ccc1O,le15,0,0,0,0,randonly selected as training point or test point
"Phenol, 3-methoxy-",392.25,1,COc1cccc(O)c1,le15,0,0,0,0,randonly selected as training point or test point
"Phenol, 4-methoxy-",393.95,1,COc1ccc(O)cc1,le15,0,0,0,0,randonly selected as training point or test point
"1,2-Benzenediol, 4-methyl- (9CI)",394.25,1,Cc1ccc(O)c(O)c1,le15,0,0,0,0,randonly selected as training point or test point
"1,2-Benzenediol, 3-methyl-",389.85,1,Cc1cccc(O)c1O,le15,0,0,0,0,randonly selected as training point or test point
"4-methylbenzene-1,3-diol",403.25,1,Cc1ccc(O)cc1O,le15,0,0,0,0,randonly selected as training point or test point
"1,3-Benzenediol, 5-methyl-",432.15,1,Cc1cc(O)cc(O)c1,le15,0,0,0,0,randonly selected as training point or test point
"1,3-Benzenediol, 2-methyl-",416.05,1,Cc1c(O)cccc1O,le15,0,0,0,0,randonly selected as training point or test point
"Benzyl alcohol, m-hydroxy- (8CI)",420.485,1,OCc1cccc(O)c1,le15,0,0,0,0,randonly selected as training point or test point
"4,6-dimethylpyran-2-one",363.25,1,Cc1cc(C)oc(=O)c1,le15,0,0,0,0,randonly selected as training point or test point
"2,6-dimethylpyran-4-one",376.55,1,Cc1cc(=O)cc(C)o1,le15,0,0,0,0,randonly selected as training point or test point
"Benzyl alcohol, p-hydroxy- (8CI)",418.95,1,OCc1ccc(O)cc1,le15,0,0,0,0,randonly selected as training point or test point
ethyl methanesulfonate,373.15,1,CCOS(C)(=O)=O,le15,0,0,0,0,randonly selected as training point or test point
"Cyclohexanol, 1-ethynyl-",346.15,1,C#CC1(O)CCCCC1,le15,0,0,0,0,randonly selected as training point or test point
"3-Cyclohexene-1-carboxaldehyde, 6-methyl-",326.35,1,CC1CC=CCC1C=O,le15,0,0,0,0,randonly selected as training point or test point
"7-Oxabicyclo(4.1.0)heptane, 3-ethenyl-",321.25,1,C=CC1CCC2OC2C1,le15,0,0,0,0,randonly selected as training point or test point
1-(cyclohexen-1-yl)ethanone,346.35,1,CC(=O)C1=CCCCC1,le15,0,0,0,0,randonly selected as training point or test point
"3,5-dimethylcyclohex-2-en-1-one",352.15,1,CC1=CC(=O)CC(C)C1,le15,0,0,0,0,randonly selected as training point or test point
2tertbutylfuran,280.0,1,CC(C)(C)c1ccco1,le15,0,0,0,0,randonly selected as training point or test point
Benzenemethanethiol,343.15,1,SCc1ccccc1,le15,0,0,0,0,randonly selected as training point or test point
"Sulfide, methyl phenyl (6CI,8CI)",330.35,1,CSc1ccccc1,le15,0,0,0,0,randonly selected as training point or test point
3-methylbenzenethiol,345.95,1,Cc1cccc(S)c1,le15,0,0,0,0,randonly selected as training point or test point
2-methylbenzenethiol,337.05,1,Cc1ccccc1S,le15,0,0,0,0,randonly selected as training point or test point
4-methylbenzenethiol,342.65,1,Cc1ccc(S)cc1,le15,0,0,0,0,randonly selected as training point or test point
Benzenemethanethiol,343.0,1,SCc1ccccc1,le15,0,0,0,0,randonly selected as training point or test point
bicyclo[3.3.1]nonane,310.45,1,C1CC2CCCC(C1)C2,le15,0,0,0,0,randonly selected as training point or test point
"1H-Indene, octahydro-",310.45,1,C1CCC2CCCC2C1,le15,0,0,0,0,randonly selected as training point or test point
non-2-yne,312.15,1,CC#CCCCCCC,le15,0,0,0,0,randonly selected as training point or test point
non-3-yne,310.75,1,CCC#CCCCCC,le15,0,0,0,0,randonly selected as training point or test point
non-4-yne,311.45,1,CCCC#CCCCC,le15,0,0,0,0,randonly selected as training point or test point
"2-chloro-1,1-dimethoxyethane",302.039,1,COC(CCl)OC,le15,0,0,0,0,randonly selected as training point or test point
"Ethanol, 2-(2-chloroethoxy)-",363.75,1,OCCOCCCl,le15,0,0,0,0,randonly selected as training point or test point
"Formic acid, chlorothio-, S-ethyl ester (7CI,8CI)",303.75,1,CCSC(=O)Cl,le15,0,0,0,1,randonly selected as training point or test point
1-chloro-5-fluoropentane,310.05,1,FCCCCCCl,le15,0,0,0,0,randonly selected as training point or test point
"Sulfide, 2-chloroethyl ethyl (8CI)",325.15,1,CCSCCCl,le15,0,0,0,0,randonly selected as training point or test point
"2-Propenal, 3,3-dichloro- (9CI)",327.15,1,O=CC=C(Cl)Cl,le15,0,0,0,0,randonly selected as training point or test point
2-Bromo-1-ethanol,313.15,1,OCCBr,le15,0,0,0,0,randonly selected as training point or test point
bromo(methoxy)methane,299.85,1,COCBr,le15,0,0,0,0,randonly selected as training point or test point
"2-Butene, 1,4-dichloro-",327.55,1,ClCC=CCCl,le15,0,0,0,0,randonly selected as training point or test point
"1-Propene, 3-chloro-2-(chloromethyl)- (9CI)",309.85,1,C=C(CCl)CCl,le15,0,0,0,0,randonly selected as training point or test point
"(Z)-1,2-dichlorobut-2-ene",305.55,1,C/C=C(\Cl)CCl,le15,0,0,0,0,randonly selected as training point or test point
"1H-Pyrrole-2,5-dione, 1-ethyl-",346.15,1,CCN1C(=O)C=CC1=O,le15,0,0,0,0,randonly selected as training point or test point
"2-Propenoic acid, 2-cyano-, ethyl ester",352.35,1,C=C(C#N)C(=O)OCC,le15,0,0,0,1,randonly selected as training point or test point
"s-Triazine, 2,4-diamino-6-methyl- (8CI)",525.15,1,Cc1nc(N)nc(N)n1,le15,0,0,0,0,randonly selected as training point or test point
4-Fluoro-N-methylaniline,336.65,1,CNc1ccc(F)cc1,le15,0,0,0,0,randonly selected as training point or test point
1-Hydroxy-1-cyclohexanecarbonitrile,385.25,1,N#CC1(O)CCCCC1,le15,0,0,0,0,randonly selected as training point or test point
"Benzenethiol, 2-amino-",368.95,1,Nc1ccccc1S,le15,0,0,0,0,randonly selected as training point or test point
8-methyl-8-azabicyclo[3.2.1]octane,315.35,1,CN1C2CCCC1CC2,le15,0,0,0,0,randonly selected as training point or test point
"2,3,3a,4,5,6,7,7a-octahydro-1H-indole",332.55,1,C1CCC2NCCC2C1,le15,0,0,0,0,randonly selected as training point or test point
Octanenitrile,346.0,1,CCCCCCCC#N,le15,0,0,0,0,randonly selected as training point or test point
"Phosphoric acid, dimethyl ester",323.55,1,COP(=O)([O-])OC,le15,0,0,0,1,randonly selected as training point or test point
"Phosphoric acid, monoethyl ester",379.55,1,CCOP(=O)([O-])[O-],le15,0,0,0,1,randonly selected as training point or test point
Bis-(hydroxymethyl)-phosphinic acid,578.25,1,O=P(O)(CO)CO,le15,0,0,0,1,randonly selected as training point or test point
"2-Furancarboxaldehyde, 5-(hydroxymethyl)-",352.55,1,O=Cc1ccc(CO)o1,le15,0,0,0,0,randonly selected as training point or test point
"1,3,5-Benzenetriol",448.05,1,Oc1cc(O)cc(O)c1,le15,0,0,0,0,randonly selected as training point or test point
"4H-Pyran-4-one, 3-hydroxy-2-methyl-",400.47,1,Cc1occc(=O)c1O,le15,0,0,0,0,randonly selected as training point or test point
"1,2,4-Trihydroxybenzene",307.35,1,Oc1ccc(O)c(O)c1,le15,0,0,0,0,randonly selected as training point or test point
"2-Furancarboxylic acid, methyl ester",331.75,1,COC(=O)c1ccco1,le15,0,0,0,1,randonly selected as training point or test point
"2(1H)-Pyrimidinone, 4-hydroxy-6-methyl- (8CI)",481.15,1,Cc1cc(O)nc(=O)[nH]1,le15,0,0,0,0,randonly selected as training point or test point
1-fluoro-2-methoxybenzene,322.95,1,COc1ccccc1F,le15,0,0,0,0,randonly selected as training point or test point
1-fluoro-3-methoxybenzene,317.05,1,COc1cccc(F)c1,le15,0,0,0,0,randonly selected as training point or test point
"Benzenemethanol, 4-fluoro- (9CI)",363.15,1,OCc1ccc(F)cc1,le15,0,0,0,0,randonly selected as training point or test point
1-fluoro-4-methoxybenzene,316.15,1,COc1ccc(F)cc1,le15,0,0,0,0,randonly selected as training point or test point
"Sulfuric acid, dimethyl ester",356.483,1,COS(=O)(=O)OC,le15,0,0,0,1,randonly selected as training point or test point
"2-Propenoic acid, 2-methyl-, 2-propenyl ester",310.15,1,C=CCOC(=O)C(=C)C,le15,0,0,0,1,randonly selected as training point or test point
cyclohexene-1-carboxylic acid,384.15,1,O=C(O)C1=CCCCC1,le15,0,0,0,1,randonly selected as training point or test point
"methyl (2E,4E)-hexa-2,4-dienoate",343.15,1,C/C=C/C=C/C(=O)OC,le15,0,0,0,0,randonly selected as training point or test point
"methyl (2E,4E)-hexa-2,4-dienoate",336.25,1,C/C=C/C=C/C(=O)OC,le15,0,0,0,0,randonly selected as training point or test point
2-Acetylcyclopentan-1-one,345.95,1,CC(=O)C1CCCC1=O,le15,0,0,0,0,randonly selected as training point or test point
Cyclohex-3-ene-1-carboxylic acid,383.05,1,O=C(O)C1CC=CCC1,le15,0,0,0,1,randonly selected as training point or test point
2-(ethoxymethyl)furan,314.35,1,CCOCc1ccco1,le15,0,0,0,0,randonly selected as training point or test point
4-Morpholineacetonitrile,360.15,1,N#CCN1CCOCC1,le15,0,0,0,0,randonly selected as training point or test point
"Phenol, o-mercapto- (6CI,7CI,8CI)",362.25,1,Oc1ccccc1S,le15,0,0,0,0,randonly selected as training point or test point
1-thiophen-2-ylethanone,355.55,1,CC(=O)c1cccs1,le15,0,0,0,0,randonly selected as training point or test point
1-thiophen-3-ylethanone,342.15,1,CC(=O)c1ccsc1,le15,0,0,0,0,randonly selected as training point or test point
"1-Hexyn-3-ol, 3,5-dimethyl-",317.55,1,C#CC(C)(O)CC(C)C,le15,0,0,0,0,randonly selected as training point or test point
"5-Hepten-2-one, 6-methyl-",323.15,1,CC(=O)CCC=C(C)C,le15,0,0,0,0,randonly selected as training point or test point
9-Oxabicyclo(6.1.0)nonane (8CI)(9CI),329.25,1,C1CCCC2OC2CC1,le15,0,0,0,0,randonly selected as training point or test point
"2-Hexenal, 2-ethyl-",341.15,1,CCCC=C(C=O)CC,le15,0,0,0,0,randonly selected as training point or test point
1-cyclohexylethanone,334.55,1,CC(=O)C1CCCCC1,le15,0,0,0,0,randonly selected as training point or test point
"2,2-dimethylcyclohexan-1-one",323.25,1,CC1(C)CCCCC1=O,le15,0,0,0,0,randonly selected as training point or test point
"(Z)-3,4-dimethylhex-3-en-2-one",334.55,1,CC/C(C)=C(/C)C(C)=O,le15,0,0,0,0,randonly selected as training point or test point
"2,6-dimethylcyclohexan-1-one",326.95,1,CC1CCCC(C)C1=O,le15,0,0,0,0,randonly selected as training point or test point
"3,3-dimethylcyclohexan-1-one",323.25,1,CC1(C)CCCC(=O)C1,le15,0,0,0,0,randonly selected as training point or test point
Bicyclo(2.2.1)heptane-2-methanol,357.15,1,OCC1CC2CCC1C2,le15,0,0,0,0,randonly selected as training point or test point
4-ethylcyclohexan-1-one,331.65,1,CCC1CCC(=O)CC1,le15,0,0,0,0,randonly selected as training point or test point
"4-methylhepta-1,6-dien-4-ol",341.95,1,C=CCC(C)(O)CC=C,le15,0,0,0,0,randonly selected as training point or test point
"2,2,4-trimethylcyclopentan-1-one",318.55,1,CC1CC(=O)C(C)(C)C1,le15,0,0,0,0,randonly selected as training point or test point
cyclooctanone,345.92800000000005,1,O=C1CCCCCCC1,le15,0,0,0,0,randonly selected as training point or test point
"2,4,4-trimethylcyclopentan-1-one",318.55,1,CC1CC(C)(C)CC1=O,le15,0,0,0,0,randonly selected as training point or test point
2-propylthiophene,305.45,1,CCCc1cccs1,le15,0,0,0,0,randonly selected as training point or test point
"2,3,5-trimethylthiophene",309.35,1,Cc1cc(C)c(C)s1,le15,0,0,0,0,randonly selected as training point or test point
2-ethyl-3-methylthiophene,306.85,1,CCc1sccc1C,le15,0,0,0,0,randonly selected as training point or test point
"1,2,3-trimethylcyclohexane",301.05,1,CC1CCCC(C)C1C,le15,0,0,0,0,randonly selected as training point or test point
propylcyclohexane,308.15,1,CCCC1CCCCC1,le15,0,0,0,0,randonly selected as training point or test point
"1,3,5-trimethylcyclohexane",301.05,1,CC1CC(C)CC(C)C1,le15,0,0,0,0,randonly selected as training point or test point
"1,3,5-Trimethylcyclohexane",301.05,1,CC1CC(C)CC(C)C1,le15,0,0,0,0,randonly selected as training point or test point
butylcyclopentane,307.85,1,CCCCC1CCCC1,le15,0,0,0,0,randonly selected as training point or test point
"1,1,3-trimethylcyclohexane",298.35,1,CC1CCCC(C)(C)C1,le15,0,0,0,0,randonly selected as training point or test point
2-methylpropylcyclopentane,304.65,1,CC(C)CC1CCCC1,le15,0,0,0,0,randonly selected as training point or test point
1-ethyl-2-methylcyclohexane,305.05,1,CCC1CCCCC1C,le15,0,0,0,0,randonly selected as training point or test point
1-ethyl-1-methylcyclohexane,302.35,1,CCC1(C)CCCCC1,le15,0,0,0,0,randonly selected as training point or test point
"1,1,2-trimethylcyclohexane",298.35,1,CC1CCCCC1(C)C,le15,0,0,0,0,randonly selected as training point or test point
"(1R,3R)-1,2,3-trimethylcyclohexane",301.05,1,CC1[C@H](C)CCC[C@H]1C,le15,0,0,0,0,randonly selected as training point or test point
"1,2,4-trimethylcyclohexane",301.05,1,CC1CCC(C)C(C)C1,le15,0,0,0,0,randonly selected as training point or test point
"(1R,3S)-1-ethyl-3-methylcyclohexane",305.05,1,CC[C@@H]1CCC[C@H](C)C1,le15,0,0,0,0,randonly selected as training point or test point
"1,1,3,3-tetramethylcyclopentane",291.05,1,CC1(C)CCC(C)(C)C1,le15,0,0,0,0,randonly selected as training point or test point
1-Nonene,297.15,1,C=CCCCCCCC,le15,0,0,0,0,randonly selected as training point or test point
propan-2-ylcyclohexane,308.75,1,CC(C)C1CCCCC1,le15,0,0,0,0,randonly selected as training point or test point
(E)-non-2-ene,305.35,1,C/C=C/CCCCCC,le15,0,0,0,0,randonly selected as training point or test point
IsopropylCyclohexane,308.0,1,CC(C)C1CCCCC1,le15,0,0,0,0,randonly selected as training point or test point
propylcyclohexane,308.0,1,CCCC1CCCCC1,le15,0,0,0,0,randonly selected as training point or test point
"Benzene, (chloromethyl)-",347.039,1,ClCc1ccccc1,le15,0,0,0,0,randonly selected as training point or test point
4chlorotoluene,322.0,1,Cc1ccc(Cl)cc1,le15,0,0,0,0,randonly selected as training point or test point
oxalyl dichloride,277.65,1,O=C(Cl)C(=O)Cl,le15,0,0,0,0,randonly selected as training point or test point
"Ethane, 1-bromo-2-fluoro-",272.15,1,FCCBr,le15,0,0,0,0,randonly selected as training point or test point
"2-Propanone, 1,1-dichloro-",297.55,1,CC(=O)C(Cl)Cl,le15,0,0,0,0,randonly selected as training point or test point
3-chloropropanoyl chloride,334.85,1,O=C(Cl)CCCl,le15,0,0,0,0,randonly selected as training point or test point
"2-Propanone, 1,3-dichloro-",362.15,1,O=C(CCl)CCl,le15,0,0,0,0,randonly selected as training point or test point
"1,1-dichlorobutane",291.45,1,CCCC(Cl)Cl,le15,0,0,0,0,randonly selected as training point or test point
"1,1-dichloro-2-methylpropane",288.75,1,CC(C)C(Cl)Cl,le15,0,0,0,0,randonly selected as training point or test point
"1,1-dichloro-2-methylpropane",288.85,1,CC(C)C(Cl)Cl,le15,0,0,0,0,randonly selected as training point or test point
"1,3-dichlorobutane",303.75,1,CC(Cl)CCCl,le15,0,0,0,0,randonly selected as training point or test point
"(2R,3R)-2,3-dichlorobutane",291.45,1,C[C@@H](Cl)[C@@H](C)Cl,le15,0,0,0,0,randonly selected as training point or test point
"2,2-dichlorobutane",288.75,1,CCC(C)(Cl)Cl,le15,0,0,0,0,randonly selected as training point or test point
"Butane, 1,4-dichloro-",313.95,1,ClCCCCCl,le15,0,0,0,0,randonly selected as training point or test point
"4(1H)-Pyrimidinone, 2-amino-6-hydroxy-",553.55,1,Nc1nc(=O)cc(O)[nH]1,le15,0,0,0,0,randonly selected as training point or test point
1-Methyl-5-nitro-1H-imidazole,425.85,1,Cn1cncc1[N+](=O)[O-],le15,0,0,0,0,randonly selected as training point or test point
"1H-Imidazole, 1-methyl-2-nitro- (9CI)",413.75,1,Cn1ccnc1[N+](=O)[O-],le15,0,0,0,0,randonly selected as training point or test point
Adipimide,421.95,1,O=C1CCCCC(=O)N1,le15,0,0,0,0,randonly selected as training point or test point
"Valeric acid, 5-cyano-",419.55,1,N#CCCCCC(=O)O,le15,0,0,0,1,randonly selected as training point or test point
1-piperidin-1-ylethanone,370.15,1,CC(=O)N1CCCCC1,le15,0,0,0,0,randonly selected as training point or test point
N-cyclohexylformamide,422.15,1,O=CNC1CCCCC1,le15,0,0,0,0,randonly selected as training point or test point
"2H-Azepin-2-one, hexahydro-1-methyl- (8CI)(9CI)",376.45,1,CN1CCCCCC1=O,le15,0,0,0,0,randonly selected as training point or test point
"2-Propenamide, N,N-diethyl- (9CI)",364.625,1,C=CC(=O)N(CC)CC,le15,0,0,0,0,randonly selected as training point or test point
"2-Pyrrolidinone, 1-(1-methylethyl)-",366.15,1,CC(C)N1CCCC1=O,le15,0,0,0,0,randonly selected as training point or test point
"Propanenitrile, 3-butoxy-",361.35,1,CCCCOCCC#N,le15,0,0,0,0,randonly selected as training point or test point
"Piperidine, 5-ethyl-2-methyl-",317.35,1,CCC1CCC(C)NC1,le15,0,0,0,0,randonly selected as training point or test point
1-butylpyrrolidine,309.25,1,CCCCN1CCCC1,le15,0,0,0,0,randonly selected as training point or test point
cyclooctanamine,335.95,1,NC1CCCCCCC1,le15,0,0,0,0,randonly selected as training point or test point
"Cyclohexanamine, N-ethyl-",316.05,1,CCNC1CCCCC1,le15,0,0,0,0,randonly selected as training point or test point