compound,flashpoint,pure substance,smiles,source,is_silicon,is_metallic,is_tin,is_acid,data type
2-chloropentane,282.95,1,CCCC(C)Cl,le15,0,0,0,0,randonly selected as training point or test point
"1-chloro-2,2-dimethylpropane",264.25,1,CC(C)(C)CCl,le15,0,0,0,0,randonly selected as training point or test point
1-chloro-3-methylbutane,289.15,1,CC(C)CCCl,le15,0,0,0,0,randonly selected as training point or test point
1chloropentane,314.0,1,CCCCCCl,le15,0,0,0,0,randonly selected as training point or test point
2chloropentane,273.0,1,CCCC(C)Cl,le15,0,0,0,0,randonly selected as training point or test point
Bromoethene (9CI),255.95,1,C=CBr,le15,0,0,0,0,randonly selected as training point or test point
3-Pyridinecarboxaldehyde,357.15,1,O=Cc1cccnc1,le15,0,0,0,0,randonly selected as training point or test point
pyridine-2-carbaldehyde,327.55,1,O=Cc1ccccn1,le15,0,0,0,0,randonly selected as training point or test point
Benzenemethanamine,333.15,1,NCc1ccccc1,le15,0,0,0,0,randonly selected as training point or test point
"Benzenamine, N-methyl-",352.039,1,CNc1ccccc1,le15,0,0,0,0,randonly selected as training point or test point
"Pyridine, 2-ethyl-",302.55,1,CCc1ccccn1,le15,0,0,0,0,randonly selected as training point or test point
"Pyridine, 2,6-dimethyl-",306.45,1,Cc1cccc(C)n1,le15,0,0,0,0,randonly selected as training point or test point
4-ethylpyridine,320.15,1,CCc1ccncc1,le15,0,0,0,0,randonly selected as training point or test point
3-ethylpyridine,322.05,1,CCc1cccnc1,le15,0,0,0,0,randonly selected as training point or test point
"Pyridine, 3,4-dimethyl-",326.15,1,Cc1ccncc1C,le15,0,0,0,0,randonly selected as training point or test point
"3,5-dimethylpyridine",326.15,1,Cc1cncc(C)c1,le15,0,0,0,0,randonly selected as training point or test point
3-Cyclohexene-1-carbonitrile,338.95,1,N#CC1CC=CCC1,le15,0,0,0,0,randonly selected as training point or test point
"2,3-dimethylpyridine",318.55,1,Cc1cccnc1C,le15,0,0,0,0,randonly selected as training point or test point
"Pyridine, 2,5-dimethyl-",321.15,1,Cc1ccc(C)nc1,le15,0,0,0,0,randonly selected as training point or test point
4methylaniline,359.0,1,Cc1ccc(N)cc1,le15,0,0,0,0,randonly selected as training point or test point
"Carbamoyl chloride, dimethyl-",341.45,1,CN(C)C(=O)Cl,le15,0,0,0,0,randonly selected as training point or test point
chloromethyl thiocyanate,357.05,1,N#CSCCl,le15,0,0,0,0,randonly selected as training point or test point
"2,5-Cyclohexadiene-1,4-dione",332.45,1,O=C1C=CC(=O)C=C1,le15,0,0,0,0,randonly selected as training point or test point
"Maleonitrile, diamino- (8CI)",495.85,1,N#C/C(N)=C(/N)C#N,le15,0,0,0,0,randonly selected as training point or test point
"Methanesulfinic acid, 1-amino-1-imino-",441.85,1,N=C(N)S(=O)O,le15,0,0,0,1,randonly selected as training point or test point
"Phenol, 2-methyl-",350.25,1,Cc1ccccc1O,le15,0,0,0,0,randonly selected as training point or test point
Benzenemethanol,370.65,1,OCc1ccccc1,le15,0,0,0,0,randonly selected as training point or test point
"Benzene, methoxy-",317.6040000000001,1,COc1ccccc1,le15,0,0,0,0,randonly selected as training point or test point
"Phenol, 4-methyl-",354.15,1,Cc1ccc(O)cc1,le15,0,0,0,0,randonly selected as training point or test point
"Phenol, 3-methyl-",359.261,1,Cc1cccc(O)c1,le15,0,0,0,0,randonly selected as training point or test point
"Hydrazine, phenyl-",388.55,1,NNc1ccccc1,le15,0,0,0,0,randonly selected as training point or test point
"1,4-Benzenediamine",409.05,1,Nc1ccc(N)cc1,le15,0,0,0,0,randonly selected as training point or test point
"1,3-Benzenediamine",420.75,1,Nc1cccc(N)c1,le15,0,0,0,0,randonly selected as training point or test point
"Pyrazine, 2,6-dimethyl-",325.95,1,Cc1cncc(C)n1,le15,0,0,0,0,randonly selected as training point or test point
Hexanedinitrile,422.15,1,N#CCCCCC#N,le15,0,0,0,0,randonly selected as training point or test point
"Pyrazine, 2,5-dimethyl-",337.05,1,Cc1cnc(C)cn1,le15,0,0,0,0,randonly selected as training point or test point
"2-Pyridinamine, 4-methyl-",387.15,1,Cc1ccnc(N)c1,le15,0,0,0,0,randonly selected as training point or test point
"4,6-dimethylpyrimidine",329.15,1,Cc1cc(C)ncn1,le15,0,0,0,0,randonly selected as training point or test point
"Pyridine, 2-amino-3-methyl-",383.05,1,Cc1cccnc1N,le15,0,0,0,0,randonly selected as training point or test point
"Pyridine, 2-amino-6-methyl-",376.15,1,Cc1cccc(N)n1,le15,0,0,0,0,randonly selected as training point or test point
"4-Pyridinamine, 3-methyl- (9CI)",411.55,1,Cc1cnccc1N,le15,0,0,0,0,randonly selected as training point or test point
pyridin-2-ylmethanamine,363.15,1,NCc1ccccn1,le15,0,0,0,0,randonly selected as training point or test point
pyridin-3-ylmethanamine,373.15,1,NCc1cccnc1,le15,0,0,0,0,randonly selected as training point or test point
pyridin-4-ylmethanamine,381.45,1,NCc1ccncc1,le15,0,0,0,0,randonly selected as training point or test point
N-methylpyridin-2-amine,360.95,1,CNc1ccccn1,le15,0,0,0,0,randonly selected as training point or test point
"Pyrazine, 2,3-dimethyl-",327.55,1,Cc1nccnc1C,le15,0,0,0,0,randonly selected as training point or test point
"Pyrazine, 2-ethyl-",315.95,1,CCc1cnccn1,le15,0,0,0,0,randonly selected as training point or test point
"2,4-dimethylpyrimidine",309.85,1,Cc1ccnc(C)n1,le15,0,0,0,0,randonly selected as training point or test point
2-ethylbutanedinitrile,399.55,1,CCC(C#N)CC#N,le15,0,0,0,0,randonly selected as training point or test point
"1,2-Benzenediamine",383.15,1,Nc1ccccc1N,le15,0,0,0,0,randonly selected as training point or test point
"2-Pyridinamine, 5-methyl-",384.05,1,Cc1ccc(N)nc1,le15,0,0,0,0,randonly selected as training point or test point
Adiponitrile,432.0,1,N#CCCCCC#N,le15,0,0,0,0,randonly selected as training point or test point
"Cyclohexene, 4-vinyl- (8CI)",289.15,1,C=CC1CC=CCC1,le15,0,0,0,0,randonly selected as training point or test point
"(3E)-2,5-dimethylhexa-1,3,5-triene",291.25,1,C=C(C)/C=C/C(=C)C,le15,0,0,0,0,randonly selected as training point or test point
"(1Z,5Z)-cycloocta-1,5-diene",311.15,1,C1=C\CC/C=C\CC/1,le15,0,0,0,0,randonly selected as training point or test point
1-ethenylcyclohexene,295.85,1,C=CC1=CCCCC1,le15,0,0,0,0,randonly selected as training point or test point
"propane-1,3-dithiol",332.05,1,SCCCS,le15,0,0,0,0,randonly selected as training point or test point
"propane-1,2-dithiol",308.15,1,CC(S)CS,le15,0,0,0,0,randonly selected as training point or test point
bis(methylsulfanyl)methane,316.15,1,CSCSC,le15,0,0,0,0,randonly selected as training point or test point
"Acetic acid, 2-chloro-, methyl ester",324.85,1,COC(=O)CCl,le15,0,0,0,1,randonly selected as training point or test point
"Propanoic acid, 3-chloro-",398.15,1,O=C(O)CCCl,le15,0,0,0,1,randonly selected as training point or test point
"Carbonochloridic acid, ethyl ester",291.95,1,CCOC(=O)Cl,le15,0,0,0,1,randonly selected as training point or test point
"Propanoic acid, 2-chloro-",380.15,1,CC(Cl)C(=O)O,le15,0,0,0,1,randonly selected as training point or test point
chloromethyl acetate,282.05,1,CC(=O)OCCl,le15,0,0,0,0,randonly selected as training point or test point
2-methoxyacetyl chloride,301.15,1,COCC(=O)Cl,le15,0,0,0,0,randonly selected as training point or test point
1-chloro-2-methylpropan-2-ol,334.15,1,CC(C)(O)CCl,le15,0,0,0,0,randonly selected as training point or test point
1-chloro-2-ethoxyethane,288.75,1,CCOCCCl,le15,0,0,0,0,randonly selected as training point or test point
"1-Butanol, 4-chloro-",350.35,1,OCCCCCl,le15,0,0,0,0,randonly selected as training point or test point
1-chloro-3-methoxypropane,301.05,1,COCCCCl,le15,0,0,0,0,randonly selected as training point or test point
"Propane, 1-chloro-2,3-epithio-",330.65,1,ClCC1CS1,le15,0,0,0,0,randonly selected as training point or test point
Bromoethane,253.0,1,CCBr,le15,0,0,0,0,randonly selected as training point or test point
"Phenol, 2-amino-",441.15,1,Nc1ccccc1O,le15,0,0,0,0,randonly selected as training point or test point
pyridin-3-ylmethanol,370.65,1,OCc1cccnc1,le15,0,0,0,0,randonly selected as training point or test point
"Phenol, 4-amino-",462.15,1,Nc1ccc(O)cc1,le15,0,0,0,0,randonly selected as training point or test point
"Phenol, 3-amino-",428.15,1,Nc1cccc(O)c1,le15,0,0,0,0,randonly selected as training point or test point
3-methyl-1H-pyridin-2-one,445.85,1,Cc1ccc[nH]c1=O,le15,0,0,0,0,randonly selected as training point or test point
1-(1H-Pyrrol-2-yl)ethan-1-one,365.55,1,CC(=O)c1ccc[nH]1,le15,0,0,0,0,randonly selected as training point or test point
"Hydroxylamine, N-phenyl-",393.35,1,ONc1ccccc1,le15,0,0,0,0,randonly selected as training point or test point
2-methoxypyridine,305.15,1,COc1ccccn1,le15,0,0,0,0,randonly selected as training point or test point
"Pyridine-2,6-diyldiamine",434.45,1,Nc1cccc(N)n1,le15,0,0,0,0,randonly selected as training point or test point
thiophene-2-carbonitrile,326.45,1,N#Cc1cccs1,le15,0,0,0,0,randonly selected as training point or test point
Cyclohexanecarbonitrile,341.95,1,N#CC1CCCCC1,le15,0,0,0,0,randonly selected as training point or test point
"1,2,5-trimethylpyrrole",325.35,1,Cc1ccc(C)n1C,le15,0,0,0,0,randonly selected as training point or test point
Cyclohexanecarbonitrile,338.0,1,N#CC1CCCCC1,le15,0,0,0,0,randonly selected as training point or test point
1-chloro-1-nitroethane,302.85,1,CC(Cl)[N+](=O)[O-],le15,0,0,0,0,randonly selected as training point or test point
1-chloro-2-nitroethane,329.65,1,O=[N+]([O-])CCCl,le15,0,0,0,0,randonly selected as training point or test point
"Acetonitrile, dichloro-",309.15,1,N#CC(Cl)Cl,le15,0,0,0,0,randonly selected as training point or test point
"Phosphonic acid, dimethyl ester",302.594,1,CO[PH](=O)OC,le15,0,0,0,1,randonly selected as training point or test point
phenylphosphane,244.25,1,Pc1ccccc1,le15,0,0,0,0,randonly selected as training point or test point
"2-Furancarboxaldehyde, 5-methyl-",345.15,1,Cc1ccc(C=O)o1,le15,0,0,0,0,randonly selected as training point or test point
"Ethanone, 1-(2-furanyl)-",344.25,1,CC(=O)c1ccco1,le15,0,0,0,0,randonly selected as training point or test point
Hydroquinone,438.0,1,Oc1ccc(O)cc1,le15,0,0,0,0,randonly selected as training point or test point
"Pyridine, 4-amino-, 1-oxide",358.85,1,Nc1cc[n+]([O-])cc1,le15,0,0,0,0,randonly selected as training point or test point
"Ethanone, 1-(1H-imidazol-1-yl)-",361.15,1,CC(=O)n1ccnc1,le15,0,0,0,0,randonly selected as training point or test point
"Benzene, 1-fluoro-2-methyl-",284.55,1,Cc1ccccc1F,le15,0,0,0,0,randonly selected as training point or test point
"Benzene, 1-fluoro-4-methyl-",285.05,1,Cc1ccc(F)cc1,le15,0,0,0,0,randonly selected as training point or test point
"Toluene, m-fluoro- (8CI)",282.55,1,Cc1cccc(F)c1,le15,0,0,0,0,randonly selected as training point or test point
fluoromethylbenzene,290.55,1,FCc1ccccc1,le15,0,0,0,0,randonly selected as training point or test point
"Methanesulfonic acid, methyl ester",377.15,1,COS(C)(=O)=O,le15,0,0,0,1,randonly selected as training point or test point
dimethyl sulfite,303.15,1,COS(=O)OC,le15,0,0,0,0,randonly selected as training point or test point
3-Cyclohexene-1-carboxaldehyde,330.35,1,O=CC1CC=CCC1,le15,0,0,0,0,randonly selected as training point or test point
dicyclopropylmethanone,312.55,1,O=C(C1CC1)C1CC1,le15,0,0,0,0,randonly selected as training point or test point
3-methylcyclohex-2-en-1-one,341.45,1,CC1=CC(=O)CCC1,le15,0,0,0,0,randonly selected as training point or test point
Cyclohexenecarboxaldehyde,344.25,1,O=CC1=CCCCC1,le15,0,0,0,0,randonly selected as training point or test point
2-ethyl-5-methylfuran,288.25,1,CCc1ccc(C)o1,le15,0,0,0,0,randonly selected as training point or test point
2-propylfuran,287.95,1,CCCc1ccco1,le15,0,0,0,0,randonly selected as training point or test point
3-methylcyclohex-3-en-1-one,328.65,1,CC1=CCCC(=O)C1,le15,0,0,0,0,randonly selected as training point or test point
1-ethynylcyclopentan-1-ol,322.05,1,C#CC1(O)CCCC1,le15,0,0,0,0,randonly selected as training point or test point
2-ethyl-5-methyl-1H-imidazole,410.95,1,CCc1ncc(C)[nH]1,le15,0,0,0,0,randonly selected as training point or test point
"1,3,5-trimethylpyrazole",313.15,1,Cc1cc(C)n(C)n1,le15,0,0,0,0,randonly selected as training point or test point
Benzenethiol,323.75,1,Sc1ccccc1,le15,0,0,0,0,randonly selected as training point or test point
oct-1-yne,290.15,1,C#CCCCCCC,le15,0,0,0,0,randonly selected as training point or test point
ethenylcyclohexane,294.25,1,C=CC1CCCCC1,le15,0,0,0,0,randonly selected as training point or test point
"2,4-Hexadiene, 2,5-dimethyl-",298.15,1,CC(C)=CC=C(C)C,le15,0,0,0,0,randonly selected as training point or test point
cyclooctene,298.15,1,C1=CCCCCCC1,le15,0,0,0,0,randonly selected as training point or test point
ethylidenecyclohexane,297.05,1,CC=C1CCCCC1,le15,0,0,0,0,randonly selected as training point or test point
1-ethylcyclohexene,292.35,1,CCC1=CCCCC1,le15,0,0,0,0,randonly selected as training point or test point
1-methylcycloheptene,293.75,1,CC1=CCCCCC1,le15,0,0,0,0,randonly selected as training point or test point
"1,2-dimethylcyclohexene",289.95,1,CC1=C(C)CCCC1,le15,0,0,0,0,randonly selected as training point or test point
3-ethylcyclohexene,286.05,1,CCC1C=CCCC1,le15,0,0,0,0,randonly selected as training point or test point
oct-2-yne,297.25,1,CC#CCCCCC,le15,0,0,0,0,randonly selected as training point or test point
prop-2-enylcyclopentane,285.35,1,C=CCC1CCCC1,le15,0,0,0,0,randonly selected as training point or test point
"1,7-Octadiene",282.55,1,C=CCCCCC=C,le15,0,0,0,0,randonly selected as training point or test point
"(2E,6E)-octa-2,6-diene",286.85,1,C/C=C/CC/C=C/C,le15,0,0,0,0,randonly selected as training point or test point
"4,4-dimethylcyclohexene",275.85,1,CC1(C)CC=CCC1,le15,0,0,0,0,randonly selected as training point or test point
oct-3-yne,295.15,1,CCC#CCCCC,le15,0,0,0,0,randonly selected as training point or test point
2propenylcyclopentane,285.0,1,CC=CC1CCCC1,le15,0,0,0,0,randonly selected as training point or test point
4octyne,291.0,1,CCCC#CCCC,le15,0,0,0,0,randonly selected as training point or test point
Ethenylcyclohexane,295.0,1,C=CC1CCCCC1,le15,0,0,0,0,randonly selected as training point or test point
1-chloro-4-fluorobutane,283.05,1,FCCCCCl,le15,0,0,0,0,randonly selected as training point or test point
3chloro1propanethiol,316.0,1,SCCCCl,le15,0,0,0,0,randonly selected as training point or test point
"1-Propene, 2,3-dichloro-",283.15,1,C=C(Cl)CCl,le15,0,0,0,0,randonly selected as training point or test point
"1-Propene, 1,3-dichloro-",300.95,1,ClC=CCCl,le15,0,0,0,0,randonly selected as training point or test point
"Propene, 1,2-dichloro-",288.85,1,CC(Cl)=CCl,le15,0,0,0,0,randonly selected as training point or test point
"3,3-dichloroprop-1-ene",276.15,1,C=CC(Cl)Cl,le15,0,0,0,0,randonly selected as training point or test point
"1-Propene, 1,1-dichloro- (9CI)",273.75,1,CC=C(Cl)Cl,le15,0,0,0,0,randonly selected as training point or test point
"1-Propene, 1,3-dichloro-, (Z)- (9CI)",297.15,1,Cl/C=C\CCl,le15,0,0,0,0,randonly selected as training point or test point
"(E)-1,3-dichloroprop-1-ene",300.95,1,Cl/C=C/CCl,le15,0,0,0,0,randonly selected as training point or test point
"2-Propenoic acid, 2-cyano-, methyl ester",340.75,1,C=C(C#N)C(=O)OC,le15,0,0,0,1,randonly selected as training point or test point
"Aniline, o-fluoro- (8CI)",333.15,1,Nc1ccccc1F,le15,0,0,0,0,randonly selected as training point or test point
"Aniline, p-fluoro- (8CI)",351.05,1,Nc1ccc(F)cc1,le15,0,0,0,0,randonly selected as training point or test point
"Aniline, m-fluoro- (8CI)",350.35,1,Nc1cccc(F)c1,le15,0,0,0,0,randonly selected as training point or test point
1-Ethenyl-2-pyrrolidinone (9CI),367.05,1,C=CN1CCCC1=O,le15,0,0,0,0,randonly selected as training point or test point
"Propanenitrile, 3-(2-propenyloxy)- (9CI)",356.05,1,C=CCOCCC#N,le15,0,0,0,0,randonly selected as training point or test point
1-(furan-2-yl)-N-methylmethanamine,307.15,1,CNCc1ccco1,le15,0,0,0,0,randonly selected as training point or test point
"2,4,5-Trimethyloxazole",306.45,1,Cc1nc(C)c(C)o1,le15,0,0,0,0,randonly selected as training point or test point
1H-Imidazole-4-ethanamine,453.45,1,NCCc1c[nH]cn1,le15,0,0,0,0,randonly selected as training point or test point
Heptane-1-nitrile,333.65,1,CCCCCCC#N,le15,0,0,0,0,randonly selected as training point or test point
"2-Propyn-1-amine, N,N-diethyl-",429.15,1,C#CCN(CC)CC,le15,0,0,0,0,randonly selected as training point or test point
"1-Propyn-1-amine, N,N-diethyl- (9CI)",311.85,1,CC#CN(CC)CC,le15,0,0,0,0,randonly selected as training point or test point
Heptanenitrile,331.0,1,CCCCCCC#N,le15,0,0,0,0,randonly selected as training point or test point
"2-Propanone, 1,1,1-trifluoro-",243.15,1,CC(=O)C(F)(F)F,le15,0,0,0,0,randonly selected as training point or test point
2-Furancarboxylic acid,367.35,1,O=C(O)c1ccco1,le15,0,0,0,1,randonly selected as training point or test point
"2,5-Furandione, 3-methyl-",374.15,1,CC1=CC(=O)OC1=O,le15,0,0,0,0,randonly selected as training point or test point
"3,6-Pyridazinedione, 1,2-dihydro-",515.55,1,O=c1ccc(=O)[nH][nH]1,le15,0,0,0,0,randonly selected as training point or test point
1H-imidazole-5-carboxylic acid,526.35,1,O=C(O)c1cnc[nH]1,le15,0,0,0,1,randonly selected as training point or test point
"4(1H)-Pyrimidinone, 6-hydroxy-",443.75,1,O=c1cc(O)[nH]cn1,le15,0,0,0,0,randonly selected as training point or test point
"Phenol, 2-fluoro-",319.85,1,Oc1ccccc1F,le15,0,0,0,0,randonly selected as training point or test point
"Phenol, 4-fluoro-",347.95,1,Oc1ccc(F)cc1,le15,0,0,0,0,randonly selected as training point or test point
3-fluorophenol,344.15,1,Oc1cccc(F)c1,le15,0,0,0,0,randonly selected as training point or test point
"2-Cyclopenten-1-one, 2-hydroxy-3-methyl-",373.85,1,CC1=C(O)C(=O)CC1,le15,0,0,0,0,randonly selected as training point or test point
"2H-Pyran-2-carboxaldehyde, 3,4-dihydro-",346.55,1,O=CC1CCC=CO1,le15,0,0,0,0,randonly selected as training point or test point
"1,3-Cyclohexanedione",358.85,1,O=C1CCCC(=O)C1,le15,0,0,0,0,randonly selected as training point or test point
"1,4-Cyclohexanedione",355.35,1,O=C1CCC(=O)CC1,le15,0,0,0,0,randonly selected as training point or test point
"1,2-Cyclohexanedione",357.15,1,O=C1CCCCC1=O,le15,0,0,0,0,randonly selected as training point or test point
"Acrylic acid, allyl ester (8CI)",342.35,1,C=CCOC(=O)C=C,le15,0,0,0,1,randonly selected as training point or test point
"1,3-Butadien-1-ol, acetate",306.45,1,C=CC=COC(C)=O,le15,0,0,0,0,randonly selected as training point or test point
"2-Propyn-1-ol, propanoate",315.25,1,C#CCOC(=O)CC,le15,0,0,0,0,randonly selected as training point or test point
1-(furan-2-yl)ethanol,307.75,1,CC(O)c1ccco1,le15,0,0,0,0,randonly selected as training point or test point
ethyl but-2-ynoate,326.35,1,CC#CC(=O)OCC,le15,0,0,0,0,randonly selected as training point or test point
2-(methoxymethyl)furan,295.25,1,COCc1ccco1,le15,0,0,0,0,randonly selected as training point or test point
"2-Butenoic acid, ethenyl ester",300.15,1,C=COC(=O)C=CC,le15,0,0,0,1,randonly selected as training point or test point
"2,4-Hexadienoic acid, (2E,4E)-",400.15,1,C/C=C/C=C/C(=O)O,le15,0,0,0,1,randonly selected as training point or test point
2-Thiophenecarboxaldehyde,350.95,1,O=Cc1cccs1,le15,0,0,0,0,randonly selected as training point or test point
"Guanidine, N'-cyano-N,N-dimethyl-",337.55,1,CN(C)C(=N)NC#N,le15,0,0,0,0,randonly selected as training point or test point
"Cyclohexanone, 2-methyl-",319.05,1,CC1CCCCC1=O,le15,0,0,0,0,randonly selected as training point or test point
"Cyclohexanone, 3-methyl-",321.15,1,CC1CCCC(=O)C1,le15,0,0,0,0,randonly selected as training point or test point
2-Heptyn-1-ol,351.15,1,CCCCC#CCO,le15,0,0,0,0,randonly selected as training point or test point
2-Methylenehexanal,306.45,1,C=C(C=O)CCCC,le15,0,0,0,0,randonly selected as training point or test point
"hepta-1,6-dien-4-ol",313.15,1,C=CCC(O)CC=C,le15,0,0,0,0,randonly selected as training point or test point
"5-Hexen-2-one, 5-methyl-",311.85,1,C=C(C)CCC(C)=O,le15,0,0,0,0,randonly selected as training point or test point
"2,5-dimethylcyclopentan-1-one",313.75,1,CC1CCC(C)C1=O,le15,0,0,0,0,randonly selected as training point or test point