compound,flashpoint,pure substance,smiles,source,is_silicon,is_metallic,is_tin,is_acid,data type
Methanesulphonyl chloride,315.35,1,CS(=O)(=O)Cl,le15,0,0,0,0,randonly selected as training point or test point
"Ether, bis(chloromethyl)",348.05,1,ClCOCCl,le15,0,0,0,0,randonly selected as training point or test point
"Ethanol, 2,2-dichloro-",351.45,1,OCC(Cl)Cl,le15,0,0,0,0,randonly selected as training point or test point
Carbonothioic dichloride,335.15,1,S=C(Cl)Cl,le15,0,0,0,0,randonly selected as training point or test point
"Silane, dichloromethyl-",240.95,1,[SiH3]C(Cl)Cl,le15,1,1,0,0,randonly selected as training point or test point
"Pyridine, 2,6-difluoro-",307.05,1,Fc1cccc(F)n1,le15,0,0,0,0,randonly selected as training point or test point
"Succinimide, N-hydroxy- (8CI)",385.65,1,O=C1CCC(=O)N1O,le15,0,0,0,0,randonly selected as training point or test point
"Acrylamide, N-(hydroxymethyl)-2-methyl- (6CI,8CI)",412.15,1,C=C(C)C(=O)NCO,le15,0,0,0,0,randonly selected as training point or test point
N-acetyl-N-methylacetamide,339.65,1,CC(=O)N(C)C(C)=O,le15,0,0,0,0,randonly selected as training point or test point
"Piperazine, 1-nitroso-",386.95,1,O=NN1CCNCC1,le15,0,0,0,0,randonly selected as training point or test point
"3(2H)-Isothiazolone, 2-methyl-",337.45,1,Cn1sccc1=O,le15,0,0,0,0,randonly selected as training point or test point
1-methylpiperidin-4-ol,360.95,1,CN1CCC(O)CC1,le15,0,0,0,0,randonly selected as training point or test point
"Morpholine, 2,6-dimethyl-",317.55,1,CC1CNCC(C)O1,le15,0,0,0,0,randonly selected as training point or test point
Hexanamide,375.374,1,CCCCCC(N)=O,le15,0,0,0,0,randonly selected as training point or test point
"Acetamide, N,N-diethyl-",342.45,1,CCN(CC)C(C)=O,le15,0,0,0,0,randonly selected as training point or test point
N-butylacetamide,387.65,1,CCCCNC(C)=O,le15,0,0,0,0,randonly selected as training point or test point
"Ethylamine, N,N-dimethyl-2-(vinyloxy)- (6CI,7CI,8CI)",301.55,1,C=COCCN(C)C,le15,0,0,0,0,randonly selected as training point or test point
"Morpholine, 4-ethyl-",300.95,1,CCN1CCOCC1,le15,0,0,0,0,randonly selected as training point or test point
4-amino-4-methylpentan-2-one,329.35,1,CC(=O)CC(C)(C)N,le15,0,0,0,0,randonly selected as training point or test point
"Guanidine, 1,1,3,3-tetramethyl- (8CI)",333.15,1,CN(C)C(=N)N(C)C,le15,0,0,0,0,randonly selected as training point or test point
2-isothiocyanato-2-methylpropane,311.45,1,CC(C)(C)N=C=S,le15,0,0,0,0,randonly selected as training point or test point
"Isothiocyanic acid, butyl ester",339.25,1,CCCCN=C=S,le15,0,0,0,1,randonly selected as training point or test point
1-isothiocyanato-2-methylpropane,317.35,1,CC(C)CN=C=S,le15,0,0,0,0,randonly selected as training point or test point
butyl thiocyanate,338.05,1,CCCCSC#N,le15,0,0,0,0,randonly selected as training point or test point
"Silane, azidotrimethyl-",279.15,1,C[Si](C)(C)N=[N+]=[N-],le15,1,1,0,0,randonly selected as training point or test point
heptan-2-amine,327.15,1,CCCCCC(C)N,le15,0,0,0,0,randonly selected as training point or test point
"1-Butanamine, N,N,3-trimethyl-",283.15,1,CC(C)CCN(C)C,le15,0,0,0,0,randonly selected as training point or test point
"Propylamine, N-ethyl-1,2-dimethyl- (7CI)",278.75,1,CCNC(C)C(C)C,le15,0,0,0,0,randonly selected as training point or test point
heptan-4-amine,314.45,1,CCCC(N)CCC,le15,0,0,0,0,randonly selected as training point or test point
4-methylhexan-2-amine,302.05,1,CCC(C)CC(C)N,le15,0,0,0,0,randonly selected as training point or test point
1-Heptanamine,317.15,1,CCCCCCCN,le15,0,0,0,0,randonly selected as training point or test point
"Formamide, 1,1'-azobis-",399.15,1,NC(=O)N=NC(N)=O,le15,0,0,0,0,randonly selected as training point or test point
"Butanoic acid, 3-oxo-, methyl ester",334.75,1,COC(=O)CC(C)=O,le15,0,0,0,1,randonly selected as training point or test point
"Pentanoic acid, 4-oxo-",388.15,1,CC(=O)CCC(=O)O,le15,0,0,0,1,randonly selected as training point or test point
2-oxopropyl acetate,325.05,1,CC(=O)COC(C)=O,le15,0,0,0,0,randonly selected as training point or test point
"Pyruvic acid, ethyl ester (8CI)",318.15,1,CCOC(=O)C(C)=O,le15,0,0,0,1,randonly selected as training point or test point
"2-Propenoic acid, 2-hydroxyethyl ester",371.45,1,C=CC(=O)OCCO,le15,0,0,0,1,randonly selected as training point or test point
2-oxopentanoic acid,349.75,1,CCCC(=O)C(=O)O,le15,0,0,0,1,randonly selected as training point or test point
"1,3-Dioxolan-2-one, 4-ethyl-",401.55,1,CCC1COC(=O)O1,le15,0,0,0,0,randonly selected as training point or test point
3-methyl-2-oxobutanoic acid,344.15,1,CC(C)C(=O)C(=O)O,le15,0,0,0,1,randonly selected as training point or test point
"Morpholine, N-nitroso-",363.65,1,O=NN1CCOCC1,le15,0,0,0,0,randonly selected as training point or test point
"Hydrazine, 1,2-diacetyl- (8CI)",456.45,1,CC(=O)NNC(C)=O,le15,0,0,0,0,randonly selected as training point or test point
prop-1-ynylbenzene,335.372,1,CC#Cc1ccccc1,le15,0,0,0,0,randonly selected as training point or test point
1-ethynyl-4-methylbenzene,322.039,1,C#Cc1ccc(C)cc1,le15,0,0,0,0,randonly selected as training point or test point
1H-Indene,331.15,1,C1=Cc2ccccc2C1,le15,0,0,0,0,randonly selected as training point or test point
"Butanoic acid, 2-ethyl-",360.15,1,CCC(CC)C(=O)O,le15,0,0,0,1,randonly selected as training point or test point
"Pentanoic acid, 2-methyl-",364.15,1,CCCC(C)C(=O)O,le15,0,0,0,1,randonly selected as training point or test point
"Propanoic acid, 2-methyl-, ethyl ester",286.15,1,CCOC(=O)C(C)C,le15,0,0,0,1,randonly selected as training point or test point
"2H-Pyran-2-methanol, tetrahydro-",366.45,1,OCC1CCCCO1,le15,0,0,0,0,randonly selected as training point or test point
"Pentanoic acid, 3-methyl-",361.55,1,CCC(C)CC(=O)O,le15,0,0,0,1,randonly selected as training point or test point
"Acetic acid, 1-methylpropyl ester",289.25,1,CCC(C)OC(C)=O,le15,0,0,0,1,randonly selected as training point or test point
"Butanoic acid, ethyl ester",292.594,1,CCCC(=O)OCC,le15,0,0,0,1,randonly selected as training point or test point
"Propanoic acid, propyl ester",297.55,1,CCCOC(=O)CC,le15,0,0,0,1,randonly selected as training point or test point
"Acetic acid, 2-methylpropyl ester",294.85,1,CC(=O)OCC(C)C,le15,0,0,0,1,randonly selected as training point or test point
"1-Butanol, 3-methyl-, formate",295.45,1,CC(C)CCOC=O,le15,0,0,0,0,randonly selected as training point or test point
"2-Pentanone, 4-hydroxy-4-methyl-",331.15,1,CC(=O)CC(C)(C)O,le15,0,0,0,0,randonly selected as training point or test point
"1,3-Dioxolane, 2-ethyl-2-methyl-",286.15,1,CCC1(C)OCCO1,le15,0,0,0,0,randonly selected as training point or test point
"Acetic acid, 1,1-dimethylethyl ester",284.15,1,CC(=O)OC(C)(C)C,le15,0,0,0,1,randonly selected as training point or test point
methyl 3-methylbutanoate,292.55,1,COC(=O)CC(C)C,le15,0,0,0,0,randonly selected as training point or test point
"2,2-dimethylbutanoic acid",352.55,1,CCC(C)(C)C(=O)O,le15,0,0,0,1,randonly selected as training point or test point
"Pentanoic acid, methyl ester",295.35,1,CCCCC(=O)OC,le15,0,0,0,1,randonly selected as training point or test point
propan-2-yl propanoate,292.55,1,CCC(=O)OC(C)C,le15,0,0,0,0,randonly selected as training point or test point
"3,3-dimethylbutanoic acid",353.75,1,CC(C)(C)CC(=O)O,le15,0,0,0,1,randonly selected as training point or test point
"Oxirane, ((1-methylethoxy)methyl)-",306.45,1,CC(C)OCC1CO1,le15,0,0,0,0,randonly selected as training point or test point
"2,3-dimethylbutanoic acid",356.55,1,CC(C)C(C)C(=O)O,le15,0,0,0,1,randonly selected as training point or test point
2-(methoxymethyl)oxolane,306.45,1,COCC1CCCO1,le15,0,0,0,0,randonly selected as training point or test point
6-hydroxyhexan-2-one,365.35,1,CC(=O)CCCCO,le15,0,0,0,0,randonly selected as training point or test point
"methyl 2,2-dimethylpropanoate",279.85,1,COC(=O)C(C)(C)C,le15,0,0,0,0,randonly selected as training point or test point
"Butanoic acid, 2-methyl-, methyl ester",292.55,1,CCC(C)C(=O)OC,le15,0,0,0,1,randonly selected as training point or test point
2ethylbutyricacid,360.0,1,CCC(CC)C(=O)O,le15,0,0,0,1,randonly selected as training point or test point
IsopropylGlycidylEther,306.0,1,CC(C)OCC1CO1,le15,0,0,0,0,randonly selected as training point or test point
Methylvalerate,295.0,1,CCCCC(=O)OC,le15,0,0,0,0,randonly selected as training point or test point
secButylacetate,289.0,1,CCC(C)OC(C)=O,le15,0,0,0,0,randonly selected as training point or test point
tertButylacetate,288.0,1,CC(=O)OC(C)(C)C,le15,0,0,0,0,randonly selected as training point or test point
"Urea, butyl-",335.45,1,CCCCNC(N)=O,le15,0,0,0,0,randonly selected as training point or test point
"1,3-diethylurea",394.25,1,CCNC(=O)NCC,le15,0,0,0,0,randonly selected as training point or test point
"Urea, 1,1,3,3-tetramethyl-",327.05,1,CN(C)C(=O)N(C)C,le15,0,0,0,0,randonly selected as training point or test point
"2-Tetrazene, 1,1,4,4-tetramethyl-",535.55,1,CN(C)N=NN(C)C,le15,0,0,0,0,randonly selected as training point or test point
4-Heptanol,334.95,1,CCCC(O)CCC,le15,0,0,0,0,randonly selected as training point or test point
3-Heptanol,327.55,1,CCCCC(O)CC,le15,0,0,0,0,randonly selected as training point or test point
"2,3,3-trimethylbutan-2-ol",306.75,1,CC(C)(C)C(C)(C)O,le15,0,0,0,0,randonly selected as training point or test point
"2,3-dimethylpentan-3-ol",313.75,1,CCC(C)(O)C(C)C,le15,0,0,0,0,randonly selected as training point or test point
3-ethylpentan-3-ol,313.15,1,CCC(O)(CC)CC,le15,0,0,0,0,randonly selected as training point or test point
3-methylhexan-3-ol,322.55,1,CCCC(C)(O)CC,le15,0,0,0,0,randonly selected as training point or test point
2-methylhexan-3-ol,313.706,1,CCCC(O)C(C)C,le15,0,0,0,0,randonly selected as training point or test point
2-ethoxy-2-methylbutane,278.15,1,CCOC(C)(C)CC,le15,0,0,0,0,randonly selected as training point or test point
1-propan-2-yloxybutane,280.45,1,CCCCOC(C)C,le15,0,0,0,0,randonly selected as training point or test point
1-propoxybutane,288.75,1,CCCCOCCC,le15,0,0,0,0,randonly selected as training point or test point
"2,2-dimethylpentan-3-ol",311.45,1,CCC(O)C(C)(C)C,le15,0,0,0,0,randonly selected as training point or test point
1-methoxyhexane,294.15,1,CCCCCCOC,le15,0,0,0,0,randonly selected as training point or test point
2-methyl-1-propoxypropane,282.15,1,CCCOCC(C)C,le15,0,0,0,0,randonly selected as training point or test point
1-ethoxypentane,289.55,1,CCCCCOCC,le15,0,0,0,0,randonly selected as training point or test point
"3-Pentanol, 2,4-dimethyl-",310.15,1,CC(C)C(O)C(C)C,le15,0,0,0,0,randonly selected as training point or test point
2-methylhexan-1-ol,334.95,1,CCCCC(C)CO,le15,0,0,0,0,randonly selected as training point or test point
2heptanol,344.0,1,CCCCCC(C)O,le15,0,0,0,0,randonly selected as training point or test point
"1,2-Ethanediamine, N,N-diethyl-",303.75,1,CCN(CC)CCN,le15,0,0,0,0,randonly selected as training point or test point
"N-ethyl-N',N'-dimethylethane-1,2-diamine",297.05,1,CCNCCN(C)C,le15,0,0,0,0,randonly selected as training point or test point
Hexamethylenediamine,367.15,1,NCCCCCCN,le15,0,0,0,0,randonly selected as training point or test point
"Hydrazine, 1,1-bis(1-methylethyl)- (9CI)",303.45,1,CC(C)N(N)C(C)C,le15,0,0,0,0,randonly selected as training point or test point
thiepane,324.85,1,C1CCCSCC1,le15,0,0,0,0,randonly selected as training point or test point
Cyclohexanethiol,316.0,1,SC1CCCCC1,le15,0,0,0,0,randonly selected as training point or test point
"1-chloro-1,2,2-trifluoroethene",245.15,1,FC(F)=C(F)Cl,le15,0,0,0,0,randonly selected as training point or test point
"Benzonitrile, 4-methyl-",358.786,1,Cc1ccc(C#N)cc1,le15,0,0,0,0,randonly selected as training point or test point
"Acetonitrile, phenyl-",374.15,1,N#CCc1ccccc1,le15,0,0,0,0,randonly selected as training point or test point
1H-Indole,380.989,1,c1ccc2[nH]ccc2c1,le15,0,0,0,0,randonly selected as training point or test point
"Benzonitrile, 2-methyl-",358.15,1,Cc1ccccc1C#N,le15,0,0,0,0,randonly selected as training point or test point
"Benzonitrile, 3-methyl-",359.85,1,Cc1cccc(C#N)c1,le15,0,0,0,0,randonly selected as training point or test point
Benzylcyanide,374.0,1,N#CCc1ccccc1,le15,0,0,0,0,randonly selected as training point or test point
"Nitrous acid, 3-methylbutyl ester",283.15,1,CC(C)CCON=O,le15,0,0,0,1,randonly selected as training point or test point
"Nitrous acid, pentyl ester",282.05,1,CCCCCON=O,le15,0,0,0,1,randonly selected as training point or test point
Valine,356.158,1,CC(C)[C@H](N)C(=O)O,le15,0,0,0,0,randonly selected as training point or test point
"Pentane, 3-nitro-",319.25,1,CCC(CC)[N+](=O)[O-],le15,0,0,0,0,randonly selected as training point or test point
"Carbamic acid, butyl ester",381.15,1,CCCCOC(N)=O,le15,0,0,0,1,randonly selected as training point or test point
ethyl N-ethylcarbamate,348.75,1,CCNC(=O)OCC,le15,0,0,0,0,randonly selected as training point or test point
"Butanoic acid, 4-(methylamino)-",370.45,1,CNCCCC(=O)O,le15,0,0,0,1,randonly selected as training point or test point
"Ethanol, 2-(diethylamino)-",322.05,1,CCN(CC)CCO,le15,0,0,0,0,randonly selected as training point or test point
"Ethanol, 2-(butylamino)-",352.45,1,CCCCNCCO,le15,0,0,0,0,randonly selected as training point or test point
"1-Hexanol, 6-amino- (8CI)(9CI)",346.65,1,NCCCCCCO,le15,0,0,0,0,randonly selected as training point or test point
"Ethanol, 2-((1,1-dimethylethyl)amino)-",342.05,1,CC(C)(C)NCCO,le15,0,0,0,0,randonly selected as training point or test point
"1-Hexanol, 2-amino-",373.15,1,CCCCC(N)CO,le15,0,0,0,0,randonly selected as training point or test point
"1-Pentanol, 2-amino-4-methyl-, (S)-",363.75,1,CC(C)C[C@H](N)CO,le15,0,0,0,0,randonly selected as training point or test point
2-(2-methylpropylamino)ethanol,345.25,1,CC(C)CNCCO,le15,0,0,0,0,randonly selected as training point or test point
N-methyl-N-trimethylsilylmethanamine,254.15,1,CN(C)[Si](C)(C)C,le15,1,1,0,0,randonly selected as training point or test point
"Pentanenitrile, 5-chloro-",371.45,1,N#CCCCCCl,le15,0,0,0,0,randonly selected as training point or test point
"Propanedioic acid, oxo- (9CI)",486.15,1,O=C(O)C(=O)C(=O)O,le15,0,0,0,1,randonly selected as training point or test point
Butanedioic acid,384.05,1,O=C(O)CCC(=O)O,le15,0,0,0,1,randonly selected as training point or test point
dimethyl oxalate,348.15,1,COC(=O)C(=O)OC,le15,0,0,0,0,randonly selected as training point or test point
"Ethylene glycol, diformate",359.35,1,O=COCCOC=O,le15,0,0,0,0,randonly selected as training point or test point
"Glycine, N-carbamoyl- (7CI,8CI)",424.65,1,NC(=O)NCC(=O)O,le15,0,0,0,0,randonly selected as training point or test point
"Propane, 2-nitro-2-nitroso-",309.25,1,CC(C)(N=O)[N+](=O)[O-],le15,0,0,0,0,randonly selected as training point or test point
"Guanidine, N-methyl-N'-nitro- (9CI)",378.55,1,CNC(=N)N[N+](=O)[O-],le15,0,0,0,0,randonly selected as training point or test point
Benzofuran,329.0,1,c1ccc2occc2c1,le15,0,0,0,0,randonly selected as training point or test point
1H-Benzimidazole,481.589,1,c1ccc2[nH]cnc2c1,le15,0,0,0,0,randonly selected as training point or test point
"Propanoic acid, 2-hydroxy-, ethyl ester",327.75,1,CCOC(=O)C(C)O,le15,0,0,0,1,randonly selected as training point or test point
"Carbonic acid, diethyl ester",304.25,1,CCOC(=O)OCC,le15,0,0,0,1,randonly selected as training point or test point
"Propanoic acid, 2-hydroxy-, ethyl ester, (2S)-",319.15,1,CCOC(=O)[C@H](C)O,le15,0,0,0,1,randonly selected as training point or test point
2-aminobenzonitrile,395.35,1,N#Cc1ccccc1N,le15,0,0,0,0,randonly selected as training point or test point
methyl 2-hydroxy-2-methylpropanoate,309.95,1,COC(=O)C(C)(C)O,le15,0,0,0,0,randonly selected as training point or test point
"Benzonitrile, 3-amino- (9CI)",385.15,1,N#Cc1cccc(N)c1,le15,0,0,0,0,randonly selected as training point or test point
methyl 3-methoxypropanoate,320.15,1,COCCC(=O)OC,le15,0,0,0,0,randonly selected as training point or test point
ethyl 2-methoxyacetate,319.25,1,CCOC(=O)COC,le15,0,0,0,0,randonly selected as training point or test point
"Ethanol, 2-methoxy-, acetate",317.05,1,COCCOC(C)=O,le15,0,0,0,0,randonly selected as training point or test point
1H-indazole,401.65,1,c1ccc2[nH]ncc2c1,le15,0,0,0,0,randonly selected as training point or test point
"Benzonitrile, p-amino- (8CI)",400.25,1,N#Cc1ccc(N)cc1,le15,0,0,0,0,randonly selected as training point or test point
DiethylCarbonate,298.0,1,CCOC(=O)OCC,le15,0,0,0,0,randonly selected as training point or test point
"Ethene, 1,1'-sulfonylbis-",375.15,1,C=CS(=O)(=O)C=C,le15,0,0,0,0,randonly selected as training point or test point
"Thiophene, 2,5-dihydro-, 1,1-dioxide",385.15,1,O=S1(=O)CC=CC1,le15,0,0,0,0,randonly selected as training point or test point
triethylphosphane,255.95,1,CCP(CC)CC,le15,0,0,0,0,randonly selected as training point or test point
"Acetamide, N-(aminothioxomethyl)-",353.15,1,CC(=O)NC(N)=S,le15,0,0,0,0,randonly selected as training point or test point
"Benzene, (1-methylethenyl)-",318.706,1,C=C(C)c1ccccc1,le15,0,0,0,0,randonly selected as training point or test point
1-ethenyl-3-methylbenzene,320.55,1,C=Cc1cccc(C)c1,le15,0,0,0,0,randonly selected as training point or test point
"Benzene, 2-propenyl-",306.45,1,CC=Cc1ccccc1,le15,0,0,0,0,randonly selected as training point or test point
"1H-Indene, 2,3-dihydro-",323.15,1,c1ccc2c(c1)CCC2,le15,0,0,0,0,randonly selected as training point or test point
"Benzene, 1-ethenyl-4-methyl-",321.85,1,C=Cc1ccc(C)cc1,le15,0,0,0,0,randonly selected as training point or test point
cyclopropylbenzene,317.05,1,c1ccc(C2CC2)cc1,le15,0,0,0,0,randonly selected as training point or test point
"Benzene, 1-propenyl-, (Z)-",322.55,1,C/C=C\c1ccccc1,le15,0,0,0,0,randonly selected as training point or test point
3methylstyrene,324.0,1,C=Cc1cccc(C)c1,le15,0,0,0,0,randonly selected as training point or test point
4methylstyrene,318.0,1,C=Cc1ccc(C)cc1,le15,0,0,0,0,randonly selected as training point or test point
"2,3-dimethylbutane-2,3-diol",350.35,1,CC(C)(O)C(C)(C)O,le15,0,0,0,0,randonly selected as training point or test point
"2-ethyl-2-methylpropane-1,3-diol",369.25,1,CCC(C)(CO)CO,le15,0,0,0,0,randonly selected as training point or test point
"2,4-Pentanediol, 2-methyl-",367.05,1,CC(O)CC(C)(C)O,le15,0,0,0,0,randonly selected as training point or test point
"1-Propanol, 3-(1-methylethoxy)- (9CI)",328.35,1,CC(C)OCCCO,le15,0,0,0,0,randonly selected as training point or test point
"1-Butanol, 4-ethoxy-",330.05,1,CCOCCCCO,le15,0,0,0,0,randonly selected as training point or test point
"Ethanol, 2-butoxy-",333.15,1,CCCCOCCO,le15,0,0,0,0,randonly selected as training point or test point
"1,3-Pentanediol, 2-methyl-",381.65,1,CCC(O)C(C)CO,le15,0,0,0,0,randonly selected as training point or test point
"Ethane, 1,2-diethoxy-",293.75,1,CCOCCOCC,le15,0,0,0,0,randonly selected as training point or test point
"2-Propanol, 1-propoxy-",321.15,1,CCCOCC(C)O,le15,0,0,0,0,randonly selected as training point or test point
"Ethanol, 2-(2-methylpropoxy)-",323.55,1,CC(C)COCCO,le15,0,0,0,0,randonly selected as training point or test point
"3-methylpentane-2,4-diol",364.45,1,CC(O)C(C)C(C)O,le15,0,0,0,0,randonly selected as training point or test point
"1,2-Hexanediol",395.15,1,CCCCC(O)CO,le15,0,0,0,0,randonly selected as training point or test point
"1,3-Butanediol, 2,2-dimethyl-",360.75,1,CC(O)C(C)(C)CO,le15,0,0,0,0,randonly selected as training point or test point
"2,4-Hexanediol",374.15,1,CCC(O)CC(C)O,le15,0,0,0,0,randonly selected as training point or test point
1-propan-2-yloxypropan-2-ol,321.35,1,CC(O)COC(C)C,le15,0,0,0,0,randonly selected as training point or test point
"Ethanol, 2-sec-butoxy-",323.35,1,CCC(C)OCCO,le15,0,0,0,0,randonly selected as training point or test point
"Sulfide, methylvinyloxyethyl-",319.05,1,CC=COCCSCCOC=CC,le15,0,0,0,0,randonly selected as training point or test point
1fluoroheptane,286.0,1,CCCCCCCF,le15,0,0,0,0,randonly selected as training point or test point
1-Hexanethiol,303.15,1,CCCCCCS,le15,0,0,0,0,randonly selected as training point or test point