compound,flashpoint,pure substance,smiles,source,is_silicon,is_metallic,is_tin,is_acid,data type
"Acetonitrile, chloro-",320.95,1,N#CCCl,le15,0,0,0,0,randonly selected as training point or test point
"Acetic acid, hydroxy-",401.85,1,O=C(O)CO,le15,0,0,0,1,randonly selected as training point or test point
Ethaneperoxoic acid,314.15,1,CC(=O)OO,le15,0,0,0,1,randonly selected as training point or test point
"Methanamine, N-nitro- (9CI)",320.75,1,CN[N+](=O)[O-],le15,0,0,0,0,randonly selected as training point or test point
propanoyl fluoride,276.35,1,CCC(=O)F,le15,0,0,0,0,randonly selected as training point or test point
2-(fluoromethyl)oxirane,277.15,1,FCC1CO1,le15,0,0,0,0,randonly selected as training point or test point
"Ethanol, 2-methoxy-",319.25,1,COCCO,le15,0,0,0,0,randonly selected as training point or test point
"propane-1,3-diol",352.55,1,OCCCO,le15,0,0,0,0,randonly selected as training point or test point
N-(2-Hydroxyethyl)hydrazine,347.05,1,NNCCO,le15,0,0,0,0,randonly selected as training point or test point
ethanethioic S-acid,284.25,1,CC(=O)S,le15,0,0,0,1,randonly selected as training point or test point
"Urea, thio- (8CI)",339.95,1,NC(N)=S,le15,0,0,0,0,randonly selected as training point or test point
methylsulfanylethane,258.15,1,CCSC,le15,0,0,0,0,randonly selected as training point or test point
2-Propanethiol,239.15,1,CC(C)S,le15,0,0,0,0,randonly selected as training point or test point
3chloropropene,244.0,1,C=CCCl,le15,0,0,0,0,randonly selected as training point or test point
"Acetamide, 2-fluoro-",383.55,1,NC(=O)CF,le15,0,0,0,0,randonly selected as training point or test point
"2-Butenedinitrile, (E)- (9CI)",355.75,1,N#C/C=C/C#N,le15,0,0,0,0,randonly selected as training point or test point
3-fluoropropan-1-ol,311.65,1,OCCCF,le15,0,0,0,0,randonly selected as training point or test point
"hexa-2,4-diyne",285.45,1,CC#CC#CC,le15,0,0,0,0,randonly selected as training point or test point
Sulfinylbis-methane (9CI),358.15,1,CS(C)=O,le15,0,0,0,0,randonly selected as training point or test point
DimethylSulfoxide,361.0,1,CS(C)=O,le15,0,0,0,0,randonly selected as training point or test point
1chloropropane,255.0,1,CCCCl,le15,0,0,0,0,randonly selected as training point or test point
2chloropropane,241.0,1,CC(C)Cl,le15,0,0,0,0,randonly selected as training point or test point
"(2Z)-penta-2,4-dienenitrile",312.25,1,C=C/C=C\C#N,le15,0,0,0,0,randonly selected as training point or test point
carbamoyl chloride,308.75,1,NC(=O)Cl,le15,0,0,0,0,randonly selected as training point or test point
methylphosphonous acid,343.35,1,CP(O)O,le15,0,0,0,1,randonly selected as training point or test point
pyridazine,358.15,1,c1ccnnc1,le15,0,0,0,0,randonly selected as training point or test point
Pyrazine,328.15,1,c1cnccn1,le15,0,0,0,0,randonly selected as training point or test point
Butanedinitrile,414.25,1,N#CCCC#N,le15,0,0,0,0,randonly selected as training point or test point
Pyrimidine,304.0,1,c1cncnc1,le15,0,0,0,0,randonly selected as training point or test point
"cyclohexa-1,4-diene",267.15,1,C1=CCC=CC1,le15,0,0,0,0,randonly selected as training point or test point
Methylcyclopentadiene,299.0,1,CC1=CC=CC1,le15,0,0,0,0,randonly selected as training point or test point
"Ether, chloromethyl methyl",288.15,1,COCCl,le15,0,0,0,0,randonly selected as training point or test point
"1,3,5-triazine",304.25,1,c1ncncn1,le15,0,0,0,0,randonly selected as training point or test point
"1H-Pyrrole, 1-methyl-",289.15,1,Cn1cccc1,le15,0,0,0,0,randonly selected as training point or test point
pent-4-enenitrile,319.35,1,C=CCCC#N,le15,0,0,0,0,randonly selected as training point or test point
2-methyl-1H-pyrrole,320.35,1,Cc1ccc[nH]1,le15,0,0,0,0,randonly selected as training point or test point
cyclobutanecarbonitrile,317.45,1,N#CC1CCC1,le15,0,0,0,0,randonly selected as training point or test point
3-methyl-1H-pyrrole,320.35,1,Cc1cc[nH]c1,le15,0,0,0,0,randonly selected as training point or test point
3-Pentenenitrile,313.15,1,CC=CCC#N,le15,0,0,0,0,randonly selected as training point or test point
1methylpyrrole,288.0,1,Cn1cccc1,le15,0,0,0,0,randonly selected as training point or test point
Difluoroethanol,273.55,1,CC(O)(F)F,le15,0,0,0,0,randonly selected as training point or test point
3-methylfuran,251.15,1,Cc1ccoc1,le15,0,0,0,0,randonly selected as training point or test point
cyclopent-2-en-1-one,315.15,1,O=C1C=CCC1,le15,0,0,0,0,randonly selected as training point or test point
Pent-2-en-4-yn-1-ol,337.35,1,C#CC=CCO,le15,0,0,0,0,randonly selected as training point or test point
2methylfuran,251.15,1,Cc1ccco1,le15,0,0,0,0,randonly selected as training point or test point
1-methylimidazole,365.15,1,Cn1ccnc1,le15,0,0,0,0,randonly selected as training point or test point
"1H-Imidazole, 4-methyl-",414.75,1,Cc1c[nH]cn1,le15,0,0,0,0,randonly selected as training point or test point
"Pyrazole, 3-methyl-",366.15,1,Cc1cc[nH]n1,le15,0,0,0,0,randonly selected as training point or test point
"1H-Imidazole, 2-methyl-",418.05,1,Cc1ncc[nH]1,le15,0,0,0,0,randonly selected as training point or test point
1-methylpyrazole,308.15,1,Cn1cccn1,le15,0,0,0,0,randonly selected as training point or test point
"1H-Pyrazole, 4-methyl-",369.25,1,Cc1cn[nH]c1,le15,0,0,0,0,randonly selected as training point or test point
1-Hexyne,252.15,1,C#CCCCC,le15,0,0,0,0,randonly selected as training point or test point
"3,3-dimethylbut-1-yne",239.15,1,C#CC(C)(C)C,le15,0,0,0,0,randonly selected as training point or test point
methylidenecyclopentane,255.15,1,C=C1CCCC1,le15,0,0,0,0,randonly selected as training point or test point
"(2Z,4E)-hexa-2,4-diene",259.25,1,C/C=C\C=C\C,le15,0,0,0,0,randonly selected as training point or test point
1-methylcyclopentene,349.15,1,CC1=CCCC1,le15,0,0,0,0,randonly selected as training point or test point
1hexyne,253.0,1,C#CCCCC,le15,0,0,0,0,randonly selected as training point or test point
1methylcyclopentene,256.0,1,CC1=CCCC1,le15,0,0,0,0,randonly selected as training point or test point
2hexyne,262.0,1,CC#CCCC,le15,0,0,0,0,randonly selected as training point or test point
Cyclohexene,253.0,1,C1=CCCCC1,le15,0,0,0,0,randonly selected as training point or test point
Methylenecyclopentane,254.0,1,C=C1CCCC1,le15,0,0,0,0,randonly selected as training point or test point
4-Methyloxazole,293.65,1,Cc1cocn1,le15,0,0,0,0,randonly selected as training point or test point
"Isocyanic acid, allyl ester",316.15,1,C=CCN=C=O,le15,0,0,0,1,randonly selected as training point or test point
"5-methyl-1,2-oxazole",303.15,1,Cc1ccno1,le15,0,0,0,0,randonly selected as training point or test point
"3-Butenenitrile, 2-hydroxy-",345.05,1,C=CC(O)C#N,le15,0,0,0,0,randonly selected as training point or test point
Pentanenitrile,313.75,1,CCCCC#N,le15,0,0,0,0,randonly selected as training point or test point
"Butanenitrile, 3-methyl-",301.45,1,CC(C)CC#N,le15,0,0,0,0,randonly selected as training point or test point
"2-Propynylamine, 1,1-dimethyl- (6CI,7CI,8CI)",275.15,1,C#CC(C)(C)N,le15,0,0,0,0,randonly selected as training point or test point
2-methylbutanenitrile,297.55,1,CCC(C)C#N,le15,0,0,0,0,randonly selected as training point or test point
"1,2,3,6-tetrahydropyridine",289.25,1,C1=CCNCC1,le15,0,0,0,0,randonly selected as training point or test point
1-isocyanobutane,293.75,1,[C-]#[N+]CCCC,le15,0,0,0,0,randonly selected as training point or test point
Butylcyanide,313.0,1,CCCCC#N,le15,0,0,0,0,randonly selected as training point or test point
but-2-ynoic acid,364.05,1,CC#CC(=O)O,le15,0,0,0,1,randonly selected as training point or test point
"2-Oxetanone, 4-methylene-",371.05,1,C=C1CC(=O)O1,le15,0,0,0,0,randonly selected as training point or test point
methyl prop-2-ynoate,283.15,1,C#CC(=O)OC,le15,0,0,0,0,randonly selected as training point or test point
"2-Butenedial, (Z)-",339.35,1,O=C/C=C\C=O,le15,0,0,0,0,randonly selected as training point or test point
"Guanidine, N-cyano-",365.95,1,N#CNC(=N)N,le15,0,0,0,0,randonly selected as training point or test point
"4H-1,2,4-Triazole, 4-amino-",388.85,1,Nn1cnnc1,le15,0,0,0,0,randonly selected as training point or test point
"Crotonaldehyde, 3-methyl- (8CI)",307.05,1,CC(C)=CC=O,le15,0,0,0,0,randonly selected as training point or test point
"3-Butyn-2-ol, 2-methyl-",298.15,1,C#CC(C)(C)O,le15,0,0,0,0,randonly selected as training point or test point
6-oxabicyclo[3.1.0]hexane,283.15,1,C1CC2OC2C1,le15,0,0,0,0,randonly selected as training point or test point
(E)-2-methylbut-2-enal,291.45,1,C/C=C(\C)C=O,le15,0,0,0,0,randonly selected as training point or test point
3-Penten-2-one,343.15,1,CC=CC(C)=O,le15,0,0,0,0,randonly selected as training point or test point
1-cyclopropylethanone,294.25,1,CC(=O)C1CC1,le15,0,0,0,0,randonly selected as training point or test point
"3-Buten-2-one, 3-methyl-",284.15,1,C=C(C)C(C)=O,le15,0,0,0,0,randonly selected as training point or test point
"Butanal, 2-methylene- (9CI)",274.15,1,C=C(C=O)CC,le15,0,0,0,0,randonly selected as training point or test point
"penta-1,4-dien-3-ol",303.15,1,C=CC(O)C=C,le15,0,0,0,0,randonly selected as training point or test point
(E)-Pent-2-en-1-al,292.15,1,CC/C=C/C=O,le15,0,0,0,0,randonly selected as training point or test point
Ethyl vinyl ketone,263.15,1,C=CC(=O)CC,le15,0,0,0,0,randonly selected as training point or test point
Pent-4-yn-2-ol,310.35,1,C#CCC(C)O,le15,0,0,0,0,randonly selected as training point or test point
(E)-pent-3-en-2-one,292.95,1,C/C=C/C(C)=O,le15,0,0,0,0,randonly selected as training point or test point
Cyclopent-2-en-1-ol,328.25,1,OC1C=CCC1,le15,0,0,0,0,randonly selected as training point or test point
1-Pentyn-3-ol,302.15,1,C#CC(O)CC,le15,0,0,0,0,randonly selected as training point or test point
Pent-4-yn-1-ol,329.15,1,C#CCCCO,le15,0,0,0,0,randonly selected as training point or test point
2-Pentyn-1-ol,331.15,1,CCC#CCO,le15,0,0,0,0,randonly selected as training point or test point
3-Pentyn-1-ol,327.55,1,CC#CCCO,le15,0,0,0,0,randonly selected as training point or test point
cyclopentanone,303.706,1,O=C1CCCC1,le15,0,0,0,0,randonly selected as training point or test point
1cyclopropylethanone,286.0,1,CC(=O)C1CC1,le15,0,0,0,0,randonly selected as training point or test point
"Propionitrile, 3-(methylamino)- (6CI,7CI,8CI)",336.25,1,CNCCC#N,le15,0,0,0,0,randonly selected as training point or test point
"2-methyl-4,5-dihydro-1H-imidazole",347.35,1,CC1=NCCN1,le15,0,0,0,0,randonly selected as training point or test point
"Acetonitrile, (dimethylamino)-",306.15,1,CN(C)CC#N,le15,0,0,0,0,randonly selected as training point or test point
"3,3-dimethylbut-1-ene",245.15,1,C=CC(C)(C)C,le15,0,0,0,0,randonly selected as training point or test point
"2,3-dimethylbut-1-ene",255.15,1,C=C(C)C(C)C,le15,0,0,0,0,randonly selected as training point or test point
2-methylpent-2-ene,246.15,1,CCC=C(C)C,le15,0,0,0,0,randonly selected as training point or test point
"2,3-dimethylbut-2-ene",257.15,1,CC(C)=C(C)C,le15,0,0,0,0,randonly selected as training point or test point
1hexene,247.0,1,C=CCCCC,le15,0,0,0,0,randonly selected as training point or test point
2ethyl1butene,247.0,1,C=C(CC)CC,le15,0,0,0,0,randonly selected as training point or test point
2hexene,252.0,1,CC=CCCC,le15,0,0,0,0,randonly selected as training point or test point
2methyl1pentene,247.0,1,C=C(C)CCC,le15,0,0,0,0,randonly selected as training point or test point
2methyl2pentene,250.0,1,CCC=C(C)C,le15,0,0,0,0,randonly selected as training point or test point
3methyl1pentene,245.0,1,C=CC(C)CC,le15,0,0,0,0,randonly selected as training point or test point
3methyl2pentene,267.0,1,CC=C(C)CC,le15,0,0,0,0,randonly selected as training point or test point
4methyl1pentene,242.0,1,C=CCC(C)C,le15,0,0,0,0,randonly selected as training point or test point
methylcyclopentane,263.0,1,CC1CCCC1,le15,0,0,0,0,randonly selected as training point or test point
"Methane, dichloro-",312.65,1,ClCCl,le15,0,0,0,0,randonly selected as training point or test point
"Acetic acid, cyano-",380.95,1,N#CCC(=O)O,le15,0,0,0,1,randonly selected as training point or test point
"2-Propenamide, 2-methyl-",354.85,1,C=C(C)C(N)=O,le15,0,0,0,0,randonly selected as training point or test point
"Propionitrile, 3-methoxy- (8CI)",334.25,1,COCCC#N,le15,0,0,0,0,randonly selected as training point or test point
1-isocyanatopropane,272.15,1,CCCN=C=O,le15,0,0,0,0,randonly selected as training point or test point
"2-methyl-4,5-dihydro-1,3-oxazole",293.15,1,CC1=NCCO1,le15,0,0,0,0,randonly selected as training point or test point
"2-Propenamide, N-methyl-",376.75,1,C=CC(=O)NC,le15,0,0,0,0,randonly selected as training point or test point
cyclopropanecarboxamide,377.25,1,NC(=O)C1CC1,le15,0,0,0,0,randonly selected as training point or test point
"Propanenitrile, 2-hydroxy-2-methyl-",346.15,1,CC(C)(O)C#N,le15,0,0,0,0,randonly selected as training point or test point
Thiazole,299.15,1,c1cscn1,le15,0,0,0,0,randonly selected as training point or test point
"Pyrrolidine, 1-methyl-",251.45,1,CN1CCCC1,le15,0,0,0,0,randonly selected as training point or test point
1methylpyrrolidine,255.0,1,CN1CCCC1,le15,0,0,0,0,randonly selected as training point or test point
Cyclopentylamine,285.0,1,NC1CCCC1,le15,0,0,0,0,randonly selected as training point or test point
"2-Propenoic acid, 2-methyl-",347.32199999999995,1,C=C(C)C(=O)O,le15,0,0,0,1,randonly selected as training point or test point
"2(3H)-Furanone, dihydro-",354.05,1,O=C1CCCO1,le15,0,0,0,0,randonly selected as training point or test point
"2,3-Butanedione",278.65,1,CC(=O)C(C)=O,le15,0,0,0,0,randonly selected as training point or test point
(Z)-but-2-enoic acid,354.75,1,C/C=C\C(=O)O,le15,0,0,0,1,randonly selected as training point or test point
"2,3-dihydro-1,4-dioxine",298.75,1,C1=COCCO1,le15,0,0,0,0,randonly selected as training point or test point
2-(oxiran-2-yl)oxirane,318.75,1,C1OC1C1CO1,le15,0,0,0,0,randonly selected as training point or test point
But-3-enoic acid,341.35,1,C=CCC(=O)O,le15,0,0,0,1,randonly selected as training point or test point
"Butane, 1,2:3,4-diepoxy-",313.15,1,C1OC1C1CO1,le15,0,0,0,0,randonly selected as training point or test point
cyclopropanecarboxylic acid,344.85,1,O=C(O)C1CC1,le15,0,0,0,1,randonly selected as training point or test point
"Formic acid, allyl ester (8CI)",279.65,1,C=CCOC=O,le15,0,0,0,1,randonly selected as training point or test point
2-Butenoic acid,361.15,1,CC=CC(=O)O,le15,0,0,0,1,randonly selected as training point or test point
(2S)-2-[(2S)-oxiran-2-yl]oxirane,318.75,1,C1O[C@@H]1[C@@H]1CO1,le15,0,0,0,0,randonly selected as training point or test point
"2-Propenoic acid, methyl ester",279.817,1,C=CC(=O)OC,le15,0,0,0,1,randonly selected as training point or test point
"2-Butenoic acid, (E)- (9CI)",354.75,1,C/C=C/C(=O)O,le15,0,0,0,1,randonly selected as training point or test point
"2-Butyne-1,4-diol",408.708,1,OCC#CCO,le15,0,0,0,0,randonly selected as training point or test point
(2R)-2-[(2R)-oxiran-2-yl]oxirane,318.75,1,C1O[C@H]1[C@H]1CO1,le15,0,0,0,0,randonly selected as training point or test point
Crotonicacid,361.0,1,C/C=C/C(=O)O,le15,0,0,0,1,randonly selected as training point or test point
Ethenylacetate,265.0,1,C=CCC(=O)[O-],le15,0,0,0,0,randonly selected as training point or test point
gammaButyrolactone,371.0,1,O=C1CCCO1,le15,0,0,0,0,randonly selected as training point or test point
2-Imidazolidinone,475.669,1,O=C1NCCN1,le15,0,0,0,0,randonly selected as training point or test point
"Ethenamine, N-methyl-N-nitroso- (9CI)",318.65,1,C=CN(C)N=O,le15,0,0,0,0,randonly selected as training point or test point
"Butyraldehyde, 2-methyl-",277.15,1,CCC(C)C=O,le15,0,0,0,0,randonly selected as training point or test point
cyclopentanol,324.15,1,OC1CCCC1,le15,0,0,0,0,randonly selected as training point or test point
"Furan, 2-methyl-tetrahydro-",262.15,1,CC1CCCO1,le15,0,0,0,0,randonly selected as training point or test point
2-Pentanone,280.35,1,CCCC(C)=O,le15,0,0,0,0,randonly selected as training point or test point
Valeraldehyde,285.35,1,CCCCC=O,le15,0,0,0,0,randonly selected as training point or test point
oxane,258.15,1,C1CCOCC1,le15,0,0,0,0,randonly selected as training point or test point
"2-Buten-1-ol, 3-methyl-",316.15,1,CC(C)=CCO,le15,0,0,0,0,randonly selected as training point or test point
"Butyraldehyde, 3-methyl-",268.15,1,CC(C)CC=O,le15,0,0,0,0,randonly selected as training point or test point
1-Penten-3-ol,298.15,1,C=CC(O)CC,le15,0,0,0,0,randonly selected as training point or test point
4-Penten-2-ol,298.75,1,C=CCC(C)O,le15,0,0,0,0,randonly selected as training point or test point
"2,2-dimethylpropanal",258.15,1,CC(C)(C)C=O,le15,0,0,0,0,randonly selected as training point or test point
"3-Buten-1-ol, 3-methyl-",313.25,1,C=C(C)CCO,le15,0,0,0,0,randonly selected as training point or test point
1-ethenoxypropane,247.05,1,C=COCCC,le15,0,0,0,0,randonly selected as training point or test point
1-cyclopropylethanol,303.75,1,CC(O)C1CC1,le15,0,0,0,0,randonly selected as training point or test point
Pent-4-en-1-ol,316.15,1,C=CCCCO,le15,0,0,0,0,randonly selected as training point or test point
3-Penten-2-ol,300.95,1,CC=CC(C)O,le15,0,0,0,0,randonly selected as training point or test point
"2-Penten-1-ol, (2Z)-",323.75,1,CC/C=C\CO,le15,0,0,0,0,randonly selected as training point or test point
(E)-pent-2-en-1-ol,323.75,1,CC/C=C/CO,le15,0,0,0,0,randonly selected as training point or test point
3-methylbut-3-en-2-ol,302.75,1,C=C(C)C(C)O,le15,0,0,0,0,randonly selected as training point or test point
3-Pentanone,285.95,1,CCC(=O)CC,le15,0,0,0,0,randonly selected as training point or test point
"3-Butyn-2-ol, 2-methyl- (8CI,9CI)",285.95,1,C#CC(C)(C)O,le15,0,0,0,0,randonly selected as training point or test point
"1-Propene, 1-ethoxy- (9CI)",254.25,1,CC=COCC,le15,0,0,0,0,randonly selected as training point or test point
3methyl2butanone,279.0,1,CC(=O)C(C)C,le15,0,0,0,0,randonly selected as training point or test point
3pentanone,286.0,1,CCC(=O)CC,le15,0,0,0,0,randonly selected as training point or test point
Pentanal,281.0,1,CCCCC=O,le15,0,0,0,0,randonly selected as training point or test point
Piperazine,322.85,1,C1CNCCN1,le15,0,0,0,0,randonly selected as training point or test point
"2,5-dihydrothiophene",296.65,1,C1=CCSC1,le15,0,0,0,0,randonly selected as training point or test point
"Butane, 2,2-dimethyl-",225.15,1,CCC(C)(C)C,le15,0,0,0,0,randonly selected as training point or test point
"Pentane, 3-methyl-",267.15,1,CCC(C)CC,le15,0,0,0,0,randonly selected as training point or test point
"Pentane, 2-methyl-",241.15,1,CCCC(C)C,le15,0,0,0,0,randonly selected as training point or test point
2methylpentane,250.0,1,CCCC(C)C,le15,0,0,0,0,randonly selected as training point or test point
3methylpentane,267.0,1,CCC(C)CC,le15,0,0,0,0,randonly selected as training point or test point
Oxirane-2-carboxamide,513.95,1,NC(=O)C1CO1,le15,0,0,0,0,randonly selected as training point or test point
"2-Butanone, oxime",333.15,1,CCC(C)=NO,le15,0,0,0,0,randonly selected as training point or test point
Butyraldehyde oxime,331.15,1,CCCC=NO,le15,0,0,0,0,randonly selected as training point or test point
Morpholine,308.75,1,C1COCCN1,le15,0,0,0,0,randonly selected as training point or test point
butanamide,361.05,1,CCCC(N)=O,le15,0,0,0,0,randonly selected as training point or test point
2-methylpropanamide,360.85,1,CC(C)C(N)=O,le15,0,0,0,0,randonly selected as training point or test point
N-ethylacetamide,378.55,1,CCNC(C)=O,le15,0,0,0,0,randonly selected as training point or test point
N-methylpropanamide,378.55,1,CCC(=O)NC,le15,0,0,0,0,randonly selected as training point or test point
Morpholine,308.0,1,C1COCCN1,le15,0,0,0,0,randonly selected as training point or test point
"Isothiocyanic acid, ethyl ester",305.35,1,CCN=C=S,le15,0,0,0,1,randonly selected as training point or test point
ethyl thiocyanate,295.15,1,CCSC#N,le15,0,0,0,0,randonly selected as training point or test point
"1-Butanamine, 2-methyl-",276.45,1,CCC(C)CN,le15,0,0,0,0,randonly selected as training point or test point
"1-Butanamine, N-methyl-",274.85,1,CCCCNC,le15,0,0,0,0,randonly selected as training point or test point