compound,flashpoint,pure substance,smiles,source,is_silicon,is_metallic,is_tin,is_acid,data type
"2-bromo-1,3-thiazole",336.15,1,Brc1nccs1,le15,0,0,0,0,randonly selected as training point or test point
"2,2,3,3,3-pentafluoropropanoic acid",283.45,1,O=C(O)C(F)(F)C(F)(F)F,le15,0,0,0,1,randonly selected as training point or test point
"3,3,4,4,4-pentafluorobutan-2-ol",295.15,1,CC(O)C(F)(F)C(F)(F)F,le15,0,0,0,0,randonly selected as training point or test point
1-fluoro-2-(trifluoromethyl)benzene,290.15,1,Fc1ccccc1C(F)(F)F,le15,0,0,0,0,randonly selected as training point or test point
1-fluoro-3-(trifluoromethyl)benzene,280.35,1,Fc1cccc(C(F)(F)F)c1,le15,0,0,0,0,randonly selected as training point or test point
1-fluoro-4-(trifluoromethyl)benzene,283.15,1,Fc1ccc(C(F)(F)F)cc1,le15,0,0,0,0,randonly selected as training point or test point
"1,2,4,5-tetrafluoro-3-methylbenzene",296.45,1,Cc1c(F)c(F)cc(F)c1F,le15,0,0,0,0,randonly selected as training point or test point
"Methanesulfonic acid, 1,1,1-trifluoro-, methyl ester",311.483,1,COS(=O)(=O)C(F)(F)F,le15,0,0,0,1,randonly selected as training point or test point
"Isocyanic acid, p-nitrophenyl ester (8CI)",339.15,1,O=C=Nc1ccc([N+](=O)[O-])cc1,le15,0,0,0,1,randonly selected as training point or test point
1-[ethenyl(ethoxy)phosphoryl]oxyethane,362.05,1,C=CP(=O)(OCC)OCC,le15,0,0,0,0,randonly selected as training point or test point
"Benzoic acid, 4-formyl-, methyl ester",417.15,1,COC(=O)c1ccc(C=O)cc1,le15,0,0,0,1,randonly selected as training point or test point
"Benzaldehyde, 4-(N-nitrosomethylamino)-",425.25,1,O=Cc1ccc(NCN=O)cc1,le15,0,0,0,0,randonly selected as training point or test point
"4,7-Methanoindan, 3a,4,5,6,7,7a-hexahydro-1,2:5,6-diepoxy-",407.55,1,C1C2OC2C2C1C1CC2C2OC12,le15,0,0,0,0,randonly selected as training point or test point
ethyl 2-methylbenzoate,364.85,1,CCOC(=O)c1ccccc1C,le15,0,0,0,0,randonly selected as training point or test point
"Benzenemethanol, alpha-methyl-, acetate",443.35,1,CC(=O)OC(C)c1ccccc1,le15,0,0,0,0,randonly selected as training point or test point
ethyl 4-methylbenzoate,372.55,1,CCOC(=O)c1ccc(C)cc1,le15,0,0,0,0,randonly selected as training point or test point
"Benzene, 1,2-methylenedioxy-4-propyl-",372.45,1,CCCc1ccc2c(c1)OCO2,le15,0,0,0,0,randonly selected as training point or test point
"Phenol, 2-methoxy-4-(2-propenyl)-",392.95,1,C=CCc1ccc(O)c(OC)c1,le15,0,0,0,0,randonly selected as training point or test point
"1,3-Dioxolane, 2-(phenylmethyl)-",380.95,1,c1ccc(CC2OCCO2)cc1,le15,0,0,0,0,randonly selected as training point or test point
"Acetic acid, phenyl-, ethyl ester",371.35,1,CCOC(=O)Cc1ccccc1,le15,0,0,0,1,randonly selected as training point or test point
methyl 3-phenylpropanoate,372.85,1,COC(=O)CCc1ccccc1,le15,0,0,0,0,randonly selected as training point or test point
"1-Propanol, 3-phenyl-, formate",374.55,1,O=COCCCc1ccccc1,le15,0,0,0,0,randonly selected as training point or test point
ethyl 3-methylbenzoate,374.25,1,CCOC(=O)c1cccc(C)c1,le15,0,0,0,0,randonly selected as training point or test point
"2-Propanone, 1-(4-methoxyphenyl)-",374.85,1,COc1ccc(CC(C)=O)cc1,le15,0,0,0,0,randonly selected as training point or test point
"p-Benzoquinone, 2,3,5,6-tetramethyl- (8CI)",356.75,1,CC1=C(C)C(=O)C(C)=C(C)C1=O,le15,0,0,0,0,randonly selected as training point or test point
3-methoxy-2-prop-2-enylphenol,377.05,1,C=CCc1c(O)cccc1OC,le15,0,0,0,0,randonly selected as training point or test point
"Benzoic acid, 1-methylethyl ester",366.15,1,CC(C)OC(=O)c1ccccc1,le15,0,0,0,1,randonly selected as training point or test point
2-methoxy-6-prop-1-enylphenol,397.95,1,CC=Cc1cccc(OC)c1O,le15,0,0,0,0,randonly selected as training point or test point
4-phenylbutanoic acid,461.05,1,O=C(O)CCCc1ccccc1,le15,0,0,0,1,randonly selected as training point or test point
"Benzyl alcohol, p-methyl-, acetate (6CI,7CI,8CI)",371.15,1,CC(=O)OCc1ccc(C)cc1,le15,0,0,0,0,randonly selected as training point or test point
propyl benzoate,371.45,1,CCCOC(=O)c1ccccc1,le15,0,0,0,0,randonly selected as training point or test point
"2,5-Cyclohexadiene-1,4-dione, 2-(1,1-dimethylethyl)- (9CI)",355.75,1,CC(C)(C)C1=CC(=O)C=CC1=O,le15,0,0,0,0,randonly selected as training point or test point
phenyl butanoate,363.45,1,CCCC(=O)Oc1ccccc1,le15,0,0,0,0,randonly selected as training point or test point
"2-Butanone, 4-(4-hydroxyphenyl)-",396.05,1,CC(=O)CCc1ccc(O)cc1,le15,0,0,0,0,randonly selected as training point or test point
"Benzaldehyde, 4-propoxy-",391.45,1,CCCOc1ccc(C=O)cc1,le15,0,0,0,0,randonly selected as training point or test point
"1-Propanone, 2-hydroxy-2-methyl-1-phenyl-",381.35,1,CC(C)(O)C(=O)c1ccccc1,le15,0,0,0,0,randonly selected as training point or test point
"methyl 2,4-dimethylbenzoate",470.85,1,COC(=O)c1ccc(C)cc1C,le15,0,0,0,0,randonly selected as training point or test point
"1-propanone, 1-(3-methoxyphenyl)-",372.05,1,CCC(=O)c1cccc(OC)c1,le15,0,0,0,0,randonly selected as training point or test point
2-phenylbutanoic acid,443.35,1,CCC(C(=O)O)c1ccccc1,le15,0,0,0,1,randonly selected as training point or test point
"Phenol, 2-methoxy-4-(1-propenyl)-",385.15,1,CC=Cc1ccc(O)c(OC)c1,le15,0,0,0,0,randonly selected as training point or test point
"Acetic acid, 2-phenylethyl ester",374.85,1,CC(=O)OCCc1ccccc1,le15,0,0,0,1,randonly selected as training point or test point
"Propionic acid, benzyl ester (6CI,7CI,8CI)",369.25,1,CCC(=O)OCc1ccccc1,le15,0,0,0,1,randonly selected as training point or test point
"(2,4-dimethylphenyl) acetate",362.35,1,CC(=O)Oc1ccc(C)cc1C,le15,0,0,0,0,randonly selected as training point or test point
"Oxirane, ((2-methylphenoxy)methyl)-",372.25,1,Cc1ccccc1OCC1CO1,le15,0,0,0,0,randonly selected as training point or test point
"(3,4-dimethylphenyl) acetate",364.65,1,CC(=O)Oc1ccc(C)c(C)c1,le15,0,0,0,0,randonly selected as training point or test point
"Urea, N,N-dimethyl-N'-phenyl-",426.45,1,CN(C)C(=O)Nc1ccccc1,le15,0,0,0,0,randonly selected as training point or test point
"1,1,3,3-tetramethoxypropane",327.55,1,COC(CC(OC)OC)OC,le15,0,0,0,0,randonly selected as training point or test point
"Ethanol, 2-(2-(2-methoxyethoxy)ethoxy)-",391.15,1,COCCOCCOCCO,le15,0,0,0,0,randonly selected as training point or test point
"2,2'-Dimethyl-2,2'-azodipropiononitrile",369.75,1,CC(C)(C#N)N=NC(C)(C)C#N,le15,0,0,0,0,randonly selected as training point or test point
"2,1-Benzisothiazole, 3-(methylamino)-",413.65,1,CNc1snc2ccccc12,le15,0,0,0,0,randonly selected as training point or test point
"Benzothiazole, 2-amino-4-methyl-",421.75,1,Cc1cccc2sc(N)nc12,le15,0,0,0,0,randonly selected as training point or test point
"Phenol, 4-(1,1-dimethylpropyl)-",384.15,1,CCC(C)(C)c1ccc(O)cc1,le15,0,0,0,0,randonly selected as training point or test point
4-tert-butyl-2-methylphenol,383.05,1,Cc1cc(C(C)(C)C)ccc1O,le15,0,0,0,0,randonly selected as training point or test point
"1-Propanol, 1,1-dimethyl-3-phenyl- (8CI)",379.85,1,CC(C)(O)CCc1ccccc1,le15,0,0,0,0,randonly selected as training point or test point
"Phenol, 2-pentyl-",399.45,1,CCCCCc1ccccc1O,le15,0,0,0,0,randonly selected as training point or test point
"2-Cyclopenten-1-one, 3-methyl-2-(2-pentenyl)-, (Z)-",380.35,1,CC/C=C\CC1=C(C)CCC1=O,le15,0,0,0,0,randonly selected as training point or test point
"Benzenemethanol, alpha-butyl-",383.85,1,CCCCC(O)c1ccccc1,le15,0,0,0,0,randonly selected as training point or test point
"Benzenemethanol, 4-(1,1-dimethylethyl)-",377.95,1,CC(C)(C)c1ccc(CO)cc1,le15,0,0,0,0,randonly selected as training point or test point
"Benzene, (pentyloxy)-",356.75,1,CCCCCOc1ccccc1,le15,0,0,0,0,randonly selected as training point or test point
"Phenol, 2-(1,1-dimethylethyl)-4-methyl-",375.65,1,Cc1ccc(O)c(C(C)(C)C)c1,le15,0,0,0,0,randonly selected as training point or test point
1-tert-butyl-4-methoxybenzene,361.35,1,COc1ccc(C(C)(C)C)cc1,le15,0,0,0,0,randonly selected as training point or test point
"Phenol, 2-butyl-5-methyl- (9CI)",388.95,1,CCCCc1ccc(C)cc1O,le15,0,0,0,0,randonly selected as training point or test point
4-pentylphenol,406.15,1,CCCCCc1ccc(O)cc1,le15,0,0,0,0,randonly selected as training point or test point
butoxymethylbenzene,356.55,1,CCCCOCc1ccccc1,le15,0,0,0,0,randonly selected as training point or test point
"Phenethyl alcohol, alpha-ethyl-alpha-methyl-",371.75,1,CCC(C)(O)Cc1ccccc1,le15,0,0,0,0,randonly selected as training point or test point
2-methyl-3-phenylbutan-2-ol,353.15,1,CC(c1ccccc1)C(C)(C)O,le15,0,0,0,0,randonly selected as training point or test point
1-butoxy-4-methylbenzene,368.95,1,CCCCOc1ccc(C)cc1,le15,0,0,0,0,randonly selected as training point or test point
2tertbutyl4methylphenol,373.0,1,Cc1ccc(O)c(C(C)(C)C)c1,le15,0,0,0,0,randonly selected as training point or test point
2tertbutyl6methylphenol,380.0,1,Cc1cccc(C(C)(C)C)c1O,le15,0,0,0,0,randonly selected as training point or test point
"1,4-Benzenediamine, N,N-diethyl-",412.15,1,CCN(CC)c1ccc(N)cc1,le15,0,0,0,0,randonly selected as training point or test point
"2,3,5,6-Tetramethyl-p-phenylenediamine",440.95,1,Cc1c(C)c(N)c(C)c(C)c1N,le15,0,0,0,0,randonly selected as training point or test point
"1,3-dimethyladamantane",325.15,1,CC12CC3CC(C1)CC(C)(C3)C2,le15,0,0,0,0,randonly selected as training point or test point
"Methane, trichloronitro-",346.15,1,O=[N+]([O-])C(Cl)(Cl)Cl,le15,0,0,0,0,randonly selected as training point or test point
"Acetoacetic acid, 2-chloro-, ethyl ester (8CI)",323.15,1,CCOC(=O)C(Cl)C(C)=O,le15,0,0,0,1,randonly selected as training point or test point
"Butanoic acid, 4-chloro-3-oxo-, ethyl ester",369.15,1,CCOC(=O)CC(=O)CCl,le15,0,0,0,1,randonly selected as training point or test point
1-Chlorophthalazine,478.75,1,Clc1nncc2ccccc12,le15,0,0,0,0,randonly selected as training point or test point
2-chloroethyl 3-oxobutanoate,376.55,1,CC(=O)CC(=O)OCCCl,le15,0,0,0,0,randonly selected as training point or test point
"Heptanoic acid, 7-chloro-",390.15,1,O=C(O)CCCCCCCl,le15,0,0,0,1,randonly selected as training point or test point
"Ethane, 2,2-dichloro-1,1-difluoro-1-methoxy-",336.15,1,COC(F)(F)C(Cl)Cl,le15,0,0,0,0,randonly selected as training point or test point
"Phosphorodichloridothioic acid, methyl ester",323.05,1,COP(=S)(Cl)Cl,le15,0,0,0,1,randonly selected as training point or test point
2-(bromomethyl)oxolane,343.85,1,BrCC1CCCO1,le15,0,0,0,0,randonly selected as training point or test point
1-bromo-4-methylpentane,313.25,1,CC(C)CCCBr,le15,0,0,0,0,randonly selected as training point or test point
2-bromohexane,313.25,1,CCCCC(C)Br,le15,0,0,0,0,randonly selected as training point or test point
3-Bromohexane,313.25,1,CCCC(Br)CC,le15,0,0,0,0,randonly selected as training point or test point
2-bromo-2-methylpentane,306.25,1,CCCC(C)(C)Br,le15,0,0,0,0,randonly selected as training point or test point
1-bromo-2-methylpentane,313.25,1,CCCC(C)CBr,le15,0,0,0,0,randonly selected as training point or test point
1-bromo-3-methylpentane,313.25,1,CCC(C)CCBr,le15,0,0,0,0,randonly selected as training point or test point
3-bromo-3-methylpentane,306.25,1,CCC(C)(Br)CC,le15,0,0,0,0,randonly selected as training point or test point
"2,3,5,6-tetrafluoroaniline",335.15,1,Nc1c(F)c(F)cc(F)c1F,le15,0,0,0,0,randonly selected as training point or test point
"Ethanone, 1-(4-nitrophenyl)- (9CI)",349.85,1,CC(=O)c1ccc([N+](=O)[O-])cc1,le15,0,0,0,0,randonly selected as training point or test point
"Ethanone, 1-(3-nitrophenyl)-",373.05,1,CC(=O)c1cccc([N+](=O)[O-])c1,le15,0,0,0,0,randonly selected as training point or test point
"Benzene, 1-(ethenyloxy)-4-nitro-",397.95,1,C=COc1ccc([N+](=O)[O-])cc1,le15,0,0,0,0,randonly selected as training point or test point
"Ethanone, 1-(2-nitrophenyl)-",410.95,1,CC(=O)c1ccccc1[N+](=O)[O-],le15,0,0,0,0,randonly selected as training point or test point
N-Hydroxy-9-methyladenine,481.65,1,Cn1cnc2c(NO)ncnc21,le15,0,0,0,0,randonly selected as training point or test point
"Anthranilic acid, ethyl ester (6CI,7CI,8CI)",399.65,1,CCOC(=O)c1ccccc1N,le15,0,0,0,1,randonly selected as training point or test point
ethyl N-phenylcarbamate,352.35,1,CCOC(=O)Nc1ccccc1,le15,0,0,0,0,randonly selected as training point or test point
ethyl 3-aminobenzoate,384.55,1,CCOC(=O)c1cccc(N)c1,le15,0,0,0,0,randonly selected as training point or test point
"Benzamide, 2-ethoxy-",426.85,1,CCOc1ccccc1C(N)=O,le15,0,0,0,0,randonly selected as training point or test point
"Carbamic acid, methyl-, 3-methylphenyl ester",373.05,1,CNC(=O)Oc1cccc(C)c1,le15,0,0,0,1,randonly selected as training point or test point
"Benzamide, 2-hydroxy-N,N-dimethyl- (9CI)",417.45,1,CN(C)C(=O)c1ccccc1O,le15,0,0,0,0,randonly selected as training point or test point
(2S)-2-amino-3-phenylpropanoic acid,412.95,1,N[C@@H](Cc1ccccc1)C(=O)O,le15,0,0,0,1,randonly selected as training point or test point
"1,2,4-trimethyl-5-nitrobenzene",395.05,1,Cc1cc(C)c([N+](=O)[O-])cc1C,le15,0,0,0,0,randonly selected as training point or test point
1-isothiocyanato-4-methoxybenzene,392.65,1,COc1ccc(N=C=S)cc1,le15,0,0,0,0,randonly selected as training point or test point
"Phenol, 3-(diethylamino)-",412.25,1,CCN(CC)c1cccc(O)c1,le15,0,0,0,0,randonly selected as training point or test point
"Ethanol, 2-(N-ethylanilino)- (8CI)",404.15,1,CCN(CCO)c1ccccc1,le15,0,0,0,0,randonly selected as training point or test point
"Benzenemethanol, alpha-((1S)-1-(methylamino)ethyl)-, (alphaR)-",358.15,1,CN[C@@H](C)[C@H](O)c1ccccc1,le15,0,0,0,0,randonly selected as training point or test point
"(1S,2R)-2-(methylamino)-1-phenylpropan-1-ol",358.75,1,CN[C@H](C)[C@@H](O)c1ccccc1,le15,0,0,0,0,randonly selected as training point or test point
2-Amino-4-tert-butylphenol,393.25,1,CC(C)(C)c1ccc(O)c(N)c1,le15,0,0,0,0,randonly selected as training point or test point
"Ethanol, 2-((2-phenylethyl)amino)- (9CI)",401.55,1,OCCNCCc1ccccc1,le15,0,0,0,0,randonly selected as training point or test point
"Benzenamine, 4-butoxy-",396.75,1,CCCCOc1ccc(N)cc1,le15,0,0,0,0,randonly selected as training point or test point
"1,1-Ethanediol, 2,2,2-trichloro-",330.45,1,OC(O)C(Cl)(Cl)Cl,le15,0,0,0,0,randonly selected as training point or test point
Tetrachloroethylene,318.0,1,ClC(Cl)=C(Cl)Cl,le15,0,0,0,0,randonly selected as training point or test point
"1H-Pyrrole-2,5-dione, 3,4-dichloro-",367.75,1,O=C1NC(=O)C(Cl)=C1Cl,le15,0,0,0,0,randonly selected as training point or test point
"2,3,5,6-tetrafluorophenol",352.55,1,Oc1c(F)c(F)cc(F)c1F,le15,0,0,0,0,randonly selected as training point or test point
"1,3-Benzenedicarboxylic acid",469.899,1,O=C(O)c1cccc(C(=O)O)c1,le15,0,0,0,1,randonly selected as training point or test point
"Benzamide, 2-nitro- (9CI)",419.189,1,NC(=O)c1ccccc1[N+](=O)[O-],le15,0,0,0,0,randonly selected as training point or test point
"Benzamide, 4-nitro-",449.45,1,NC(=O)c1ccc([N+](=O)[O-])cc1,le15,0,0,0,0,randonly selected as training point or test point
"Benzaldehyde, 4-nitro-, oxime (9CI)",410.95,1,O=[N+]([O-])c1ccc(C=NO)cc1,le15,0,0,0,0,randonly selected as training point or test point
(Z)-2-fluoro-3-phenylprop-2-enoic acid,401.85,1,O=C(O)/C(F)=C/c1ccccc1,le15,0,0,0,1,randonly selected as training point or test point
"Phosphonic acid, ethyl-, diethyl ester",365.85,1,CCOP(=O)(CC)OCC,le15,0,0,0,1,randonly selected as training point or test point
"Phosphorous acid, triethyl ester",327.25,1,CCOP(OCC)OCC,le15,0,0,0,1,randonly selected as training point or test point
"Phosphonic acid, bis(1-methylethyl) ester",365.95,1,CC(C)O[PH](=O)OC(C)C,le15,0,0,0,1,randonly selected as training point or test point
"Benzaldehyde, 2,5-dimethoxy-",393.794,1,COc1ccc(OC)c(C=O)c1,le15,0,0,0,0,randonly selected as training point or test point
"Benzeneacetic acid, 4-methoxy-",397.45,1,COc1ccc(CC(=O)O)cc1,le15,0,0,0,1,randonly selected as training point or test point
"Benzaldehyde, 3,4-dimethoxy-",383.55,1,COc1ccc(C=O)cc1OC,le15,0,0,0,0,randonly selected as training point or test point
ethyl 4-hydroxybenzoate,393.45,1,CCOC(=O)c1ccc(O)cc1,le15,0,0,0,0,randonly selected as training point or test point
"Benzaldehyde, 3-ethoxy-4-hydroxy-",392.15,1,CCOc1cc(C=O)ccc1O,le15,0,0,0,0,randonly selected as training point or test point
"Benzoic acid, 4-methoxy-, methyl ester",371.25,1,COC(=O)c1ccc(OC)cc1,le15,0,0,0,1,randonly selected as training point or test point
"Salicylaldehyde, 3-ethoxy- (8CI)",371.05,1,CCOc1cccc(C=O)c1O,le15,0,0,0,0,randonly selected as training point or test point
"Ethanone, 1-(4-hydroxy-3-methoxyphenyl)-",398.65,1,COc1cc(C(C)=O)ccc1O,le15,0,0,0,0,randonly selected as training point or test point
"Ethanone, 1-(2-hydroxy-4-methoxyphenyl)- (9CI)",395.45,1,COc1ccc(C(C)=O)c(O)c1,le15,0,0,0,0,randonly selected as training point or test point
"Benzaldehyde, 2,4-dimethoxy-",397.85,1,COc1ccc(C=O)c(OC)c1,le15,0,0,0,0,randonly selected as training point or test point
2-phenoxypropanoic acid,359.15,1,CC(Oc1ccccc1)C(=O)O,le15,0,0,0,1,randonly selected as training point or test point
alpha-methoxy-alpha-phenylacetic acid,389.25,1,COC(C(=O)O)c1ccccc1,le15,0,0,0,1,randonly selected as training point or test point
"Acetic acid, phenoxy-, methyl ester",361.85,1,COC(=O)COc1ccccc1,le15,0,0,0,1,randonly selected as training point or test point
methyl 2-hydroxy-4-methylbenzoate,370.95,1,COC(=O)c1ccc(C)cc1O,le15,0,0,0,0,randonly selected as training point or test point
methyl 3-methoxybenzoate,366.95,1,COC(=O)c1cccc(OC)c1,le15,0,0,0,0,randonly selected as training point or test point
"Benzenemethanol, 4-(acetyloxy)-",399.25,1,CC(=O)Oc1ccc(CO)cc1,le15,0,0,0,0,randonly selected as training point or test point
methyl 2-hydroxy-5-methylbenzoate,371.65,1,COC(=O)c1cc(C)ccc1O,le15,0,0,0,0,randonly selected as training point or test point
"Benzoic acid, 2-hydroxy-3-methyl-, methyl ester",368.65,1,COC(=O)c1cccc(C)c1O,le15,0,0,0,1,randonly selected as training point or test point
"Benzoic acid, 2-hydroxy-, ethyl ester",380.15,1,CCOC(=O)c1ccccc1O,le15,0,0,0,1,randonly selected as training point or test point
3-phenoxypropanoic acid,357.15,1,O=C(O)CCOc1ccccc1,le15,0,0,0,1,randonly selected as training point or test point
"N,N-dimethyl-3-nitroaniline",390.15,1,CN(C)c1cccc([N+](=O)[O-])c1,le15,0,0,0,0,randonly selected as training point or test point
"Benzo(b)thiophene 1,1-dioxide",517.15,1,O=S1(=O)C=Cc2ccccc21,le15,0,0,0,0,randonly selected as training point or test point
"1,3,2-Dioxathiane, 5,5-dimethyl-, 2,2-dioxide",368.15,1,CC1(C)COS(=O)(=O)OC1,le15,0,0,0,0,randonly selected as training point or test point
"1,2-Benzenediol, 4-(1,1-dimethylethyl)-",408.65,1,CC(C)(C)c1ccc(O)c(O)c1,le15,0,0,0,0,randonly selected as training point or test point
"Phenol, p-butoxy- (8CI)",405.55,1,CCCCOc1ccc(O)cc1,le15,0,0,0,0,randonly selected as training point or test point
"1,4-diethoxybenzene",361.35,1,CCOc1ccc(OCC)cc1,le15,0,0,0,0,randonly selected as training point or test point
"1,4-Benzenediol, 2-(1,1-dimethylethyl)-",411.85,1,CC(C)(C)c1cc(O)ccc1O,le15,0,0,0,0,randonly selected as training point or test point
"1,3-diethoxybenzene",360.25,1,CCOc1cccc(OCC)c1,le15,0,0,0,0,randonly selected as training point or test point
"1,2-diethoxybenzene",346.95,1,CCOc1ccccc1OCC,le15,0,0,0,0,randonly selected as training point or test point
"Phenol, 2-methoxy-4-propyl-",386.15,1,CCCc1ccc(O)c(OC)c1,le15,0,0,0,0,randonly selected as training point or test point
1-(furan-3-yl)-4-methylpentan-1-one,369.95,1,CC(C)CCC(=O)c1ccoc1,le15,0,0,0,0,randonly selected as training point or test point
1-Methyl-1-phenylthiourea,388.45,1,CN(C(N)=S)c1ccccc1,le15,0,0,0,0,randonly selected as training point or test point
"Isonicotinimidic acid, 2-ethylthio-",406.35,1,CCc1cc(C(=N)S)ccn1,le15,0,0,0,1,randonly selected as training point or test point
"Bicyclo(3.1.1)hept-2-ene-2-ethanol, 6,6-dimethyl-",372.05,1,CC1(C)C2CC=C(CCO)C1C2,le15,0,0,0,0,randonly selected as training point or test point
"2-Cyclopenten-1-one, 3-methyl-2-pentyl-",383.15,1,CCCCCC1=C(C)CCC1=O,le15,0,0,0,0,randonly selected as training point or test point
"4,7-Methanoindan, hexahydro-1,8-diamino-",399.75,1,NC1CCC2C3CCC(C3N)C12,le15,0,0,0,0,randonly selected as training point or test point