compound,flashpoint,pure substance,smiles,source,is_silicon,is_metallic,is_tin,is_acid,data type
"1H-Imidazole-1-ethanol, 2-methyl-5-nitro-",472.15,1,Cc1ncc([N+](=O)[O-])n1CCO,le15,0,0,0,0,randonly selected as training point or test point
"Benzenesulfonamide, 2-methyl-",326.65,1,Cc1ccccc1S(N)(=O)=O,le15,0,0,0,0,randonly selected as training point or test point
"1H-Carbazole, 2,3,4,9-tetrahydro- (9CI)",415.25,1,c1ccc2c3c([nH]c2c1)CCCC3,le15,0,0,0,0,randonly selected as training point or test point
"2,4,6-trimethylquinoline",389.05,1,Cc1ccc2nc(C)cc(C)c2c1,le15,0,0,0,0,randonly selected as training point or test point
"N,N-dimethylnaphthalen-2-amine",396.55,1,CN(C)c1ccc2ccccc2c1,le15,0,0,0,0,randonly selected as training point or test point
N-ethylnaphthalen-2-amine,430.15,1,CCNc1ccc2ccccc2c1,le15,0,0,0,0,randonly selected as training point or test point
"2-Propenoic acid, 2-(diethylamino)ethyl ester",347.05,1,C=CC(=O)OCCN(CC)CC,le15,0,0,0,1,randonly selected as training point or test point
"Pentanamide, N,N-diethyl-4-oxo- (9CI)",383.85,1,CCN(CC)C(=O)CCC(C)=O,le15,0,0,0,0,randonly selected as training point or test point
"3-(aminomethyl)-3,5,5-trimethylcyclohexan-1-ol",375.35,1,CC1(C)CC(O)CC(C)(CN)C1,le15,0,0,0,0,randonly selected as training point or test point
"Piperazine, 1-(2-(dimethylamino)ethyl)-4-methyl-",347.65,1,CN(C)CCN1CCN(C)CC1,le15,0,0,0,0,randonly selected as training point or test point
"4,5-dimethyl-2-(2-methylpropyl)-2,5-dihydro-1,3-thiazole",368.15,1,CC1=NC(CC(C)C)SC1C,le15,0,0,0,0,randonly selected as training point or test point
1-Undecanamine,365.35,1,CCCCCCCCCCCN,le15,0,0,0,0,randonly selected as training point or test point
2-bromopropanoyl chloride,324.15,1,CC(Br)C(=O)Cl,le15,0,0,0,0,randonly selected as training point or test point
1-bromo-4-chlorobutane,333.15,1,ClCCCCBr,le15,0,0,0,0,randonly selected as training point or test point
1-bromo-3-chloro-2-methylpropane,328.95,1,CC(CCl)CBr,le15,0,0,0,0,randonly selected as training point or test point
1-chloro-4-methyl-2-nitrobenzene,387.05,1,Cc1ccc(Cl)c([N+](=O)[O-])c1,le15,0,0,0,0,randonly selected as training point or test point
"Benzene, 1-(chloromethyl)-4-nitro-",403.85,1,O=[N+]([O-])c1ccc(CCl)cc1,le15,0,0,0,0,randonly selected as training point or test point
2-chloro-1-methyl-4-nitrobenzene,382.25,1,Cc1ccc([N+](=O)[O-])cc1Cl,le15,0,0,0,0,randonly selected as training point or test point
"Benzene, 1-(chloromethyl)-2-nitro- (9CI)",385.85,1,O=[N+]([O-])c1ccccc1CCl,le15,0,0,0,0,randonly selected as training point or test point
"Benzene, 1-(chloromethyl)-3-nitro-",401.85,1,O=[N+]([O-])c1cccc(CCl)c1,le15,0,0,0,0,randonly selected as training point or test point
1-chloro-2-methyl-4-nitrobenzene,383.75,1,Cc1cc([N+](=O)[O-])ccc1Cl,le15,0,0,0,0,randonly selected as training point or test point
"Benzene, 1-chloro-2-methyl-3-nitro-",398.15,1,Cc1c(Cl)cccc1[N+](=O)[O-],le15,0,0,0,0,randonly selected as training point or test point
"Toluene, 4-chloro-2-nitro- (8CI)",393.15,1,Cc1ccc(Cl)cc1[N+](=O)[O-],le15,0,0,0,0,randonly selected as training point or test point
"Pyrimidine, 2-chloro-4-(dimethylamino)-6-methyl-",403.05,1,Cc1cc(N(C)C)nc(Cl)n1,le15,0,0,0,0,randonly selected as training point or test point
"Ethanol, 2-iodo-",338.15,1,OCCI,le15,0,0,0,0,randonly selected as training point or test point
"Benzonitrile, 2,6-dichloro-",399.95,1,N#Cc1c(Cl)cccc1Cl,le15,0,0,0,0,randonly selected as training point or test point
"Benzenamine, 4-bromo-",363.55,1,Nc1ccc(Br)cc1,le15,0,0,0,0,randonly selected as training point or test point
"Aniline, m-bromo- (8CI)",374.35,1,Nc1cccc(Br)c1,le15,0,0,0,0,randonly selected as training point or test point
"Aniline, o-bromo- (8CI)",364.25,1,Nc1ccccc1Br,le15,0,0,0,0,randonly selected as training point or test point
"1,4-Naphthalenedione, 2-methyl-",386.95,1,CC1=CC(=O)c2ccccc2C1=O,le15,0,0,0,0,randonly selected as training point or test point
2-Naphthalenecarboxylic acid,424.45,1,O=C(O)c1ccc2ccccc2c1,le15,0,0,0,1,randonly selected as training point or test point
"1-Naphthalenecarboxaldehyde, 2-hydroxy-",407.45,1,O=Cc1c(O)ccc2ccccc12,le15,0,0,0,0,randonly selected as training point or test point
naphthalene-1-carboxylic acid,437.75,1,O=C(O)c1cccc2ccccc12,le15,0,0,0,1,randonly selected as training point or test point
ethyl 2-acetyl-3-oxobutanoate,358.15,1,CCOC(=O)C(C(C)=O)C(C)=O,le15,0,0,0,0,randonly selected as training point or test point
"1,2-Cyclohexanedicarboxylic acid, cis-",473.45,1,O=C(O)[C@H]1CCCC[C@H]1C(=O)O,le15,0,0,0,1,randonly selected as training point or test point
"cyclohexane-1,4-dicarboxylic acid",508.15,1,O=C(O)C1CCC(C(=O)O)CC1,le15,0,0,0,1,randonly selected as training point or test point
"2-Propene-1,1-diol, 2-methyl-, diacetate",356.45,1,C=C(C)C(OC(C)=O)OC(C)=O,le15,0,0,0,0,randonly selected as training point or test point
DiethylFumarate,364.0,1,CC/C(C(=O)[O-])=C(/CC)C(=O)[O-],le15,0,0,0,0,randonly selected as training point or test point
"1,1'-Biphenyl, 2-fluoro-",521.15,1,Fc1ccccc1-c1ccccc1,le15,0,0,0,0,randonly selected as training point or test point
"Benzenesulfonic acid, methyl ester",416.15,1,COS(=O)(=O)c1ccccc1,le15,0,0,0,1,randonly selected as training point or test point
"Benzenesulfonamide, 4-amino-",469.15,1,Nc1ccc(S(N)(=O)=O)cc1,le15,0,0,0,0,randonly selected as training point or test point
Ethyl 2-naphthyl ether,400.15,1,CCOc1ccc2ccccc2c1,le15,0,0,0,0,randonly selected as training point or test point
1-ethoxynaphthalene,382.55,1,CCOc1cccc2ccccc12,le15,0,0,0,0,randonly selected as training point or test point
"3,5-dimethyl-1-phenylpyrazole",391.75,1,Cc1cc(C)n(-c2ccccc2)n1,le15,0,0,0,0,randonly selected as training point or test point
ethyl 2-acetylpentanoate,355.55,1,CCCC(C(C)=O)C(=O)OCC,le15,0,0,0,0,randonly selected as training point or test point
"Pentanoic acid, 4-oxo-, butyl ester",364.15,1,CCCCOC(=O)CCC(C)=O,le15,0,0,0,1,randonly selected as training point or test point
2-methylpropyl 4-oxopentanoate,367.65,1,CC(=O)CCC(=O)OCC(C)C,le15,0,0,0,0,randonly selected as training point or test point
"Acrylic acid, 2-butoxyethyl ester (8CI)",468.15,1,C=CC(=O)OCCOCCCC,le15,0,0,0,1,randonly selected as training point or test point
ethyl 2-acetyl-3-methylbutanoate,352.05,1,CCOC(=O)C(C(C)=O)C(C)C,le15,0,0,0,0,randonly selected as training point or test point
"Acetic acid, 2-ethylhexyl ester",344.55,1,CCCCC(CC)COC(C)=O,le15,0,0,0,1,randonly selected as training point or test point
"Octanoic acid, ethyl ester",348.15,1,CCCCCCCC(=O)OCC,le15,0,0,0,1,randonly selected as training point or test point
"1-Octanal, 3,7-dimethyl-7-hydroxy-",376.95,1,CC(CC=O)CCCC(C)(C)O,le15,0,0,0,0,randonly selected as training point or test point
"Hexanoic acid, butyl ester",354.25,1,CCCCCC(=O)OCCCC,le15,0,0,0,1,randonly selected as training point or test point
"Nonanoic acid, methyl ester",357.55,1,CCCCCCCCC(=O)OC,le15,0,0,0,1,randonly selected as training point or test point
"Valeric acid, pentyl ester (8CI)",349.65,1,CCCCCOC(=O)CCCC,le15,0,0,0,1,randonly selected as training point or test point
heptyl propanoate,352.95,1,CCCCCCCOC(=O)CC,le15,0,0,0,0,randonly selected as training point or test point
"Propanoic acid, 2-methyl-, hexyl ester",346.45,1,CCCCCCOC(=O)C(C)C,le15,0,0,0,1,randonly selected as training point or test point
"p-Menth-8-yl hydroperoxide (7CI,8CI)",326.15,1,CC1CCC(C(C)(C)OO)CC1,le15,0,0,0,0,randonly selected as training point or test point
Decanoic acid,394.95,1,CCCCCCCCCC(=O)O,le15,0,0,0,1,randonly selected as training point or test point
4-(2-hydroxypropan-2-yl)-1-methylcyclohexan-1-ol,392.15,1,CC1(O)CCC(C(C)(C)O)CC1,le15,0,0,0,0,randonly selected as training point or test point
"Butanoic acid, 3-methyl-, 3-methylbutyl ester",339.85,1,CC(C)CCOC(=O)CC(C)C,le15,0,0,0,1,randonly selected as training point or test point
"Butanoic acid, hexyl ester",354.25,1,CCCCCCOC(=O)CCC,le15,0,0,0,1,randonly selected as training point or test point
"Nonylalcohol, formate (6CI)",360.65,1,CCCCCCCCCOC=O,le15,0,0,0,0,randonly selected as training point or test point
propyl heptanoate,349.85,1,CCCCCCC(=O)OCCC,le15,0,0,0,0,randonly selected as training point or test point
6-methylheptan-2-yl acetate,338.35,1,CC(=O)OC(C)CCCC(C)C,le15,0,0,0,0,randonly selected as training point or test point
"1,1,3,3-tetraethylurea",360.15,1,CCN(CC)C(=O)N(CC)CC,le15,0,0,0,0,randonly selected as training point or test point
Undecyl alcohol,386.15,1,CCCCCCCCCCCO,le15,0,0,0,0,randonly selected as training point or test point
"Ether, decyl methyl",346.05,1,CCCCCCCCCCOC,le15,0,0,0,0,randonly selected as training point or test point
undecan-6-ol,367.15,1,CCCCCC(O)CCCCC,le15,0,0,0,0,randonly selected as training point or test point
undecan-5-ol,367.15,1,CCCCCCC(O)CCCC,le15,0,0,0,0,randonly selected as training point or test point
2undecanol,380.0,1,CCCCCCCCCC(C)O,le15,0,0,0,0,randonly selected as training point or test point
"N,N'-ditert-butylethane-1,2-diamine",349.85,1,CC(C)(C)NCCNC(C)(C)C,le15,0,0,0,0,randonly selected as training point or test point
"Phosphorochloridic acid, diethyl ester",323.05,1,CCOP(=O)(Cl)OCC,le15,0,0,0,1,randonly selected as training point or test point
"Benzoic acid, 5-chloro-2-hydroxy-",420.75,1,O=C(O)c1cc(Cl)ccc1O,le15,0,0,0,1,randonly selected as training point or test point
"Benzenamine, 4-chloro-2-nitro-",413.65,1,Nc1ccc(Cl)cc1[N+](=O)[O-],le15,0,0,0,0,randonly selected as training point or test point
"Benzenamine, 2-chloro-4-nitro-",424.25,1,Nc1ccc([N+](=O)[O-])cc1Cl,le15,0,0,0,0,randonly selected as training point or test point
"Benzenamine, 4-chloro-3-nitro-",435.35,1,Nc1ccc(Cl)c([N+](=O)[O-])c1,le15,0,0,0,0,randonly selected as training point or test point
"Benzenamine, 5-chloro-2-nitro- (9CI)",422.55,1,Nc1cc(Cl)ccc1[N+](=O)[O-],le15,0,0,0,0,randonly selected as training point or test point
"Benzenamine, 2-chloro-5-nitro-",417.25,1,Nc1cc([N+](=O)[O-])ccc1Cl,le15,0,0,0,0,randonly selected as training point or test point
"1-chloro-3,5-dimethoxybenzene",365.85,1,COc1cc(Cl)cc(OC)c1,le15,0,0,0,0,randonly selected as training point or test point
"3-chloro-4,7,7-trimethylbicyclo[2.2.1]heptane",341.15,1,CC1(C)C2CCC1(C)C(Cl)C2,le15,0,0,0,0,randonly selected as training point or test point
"Phenol, 2-bromo-",315.15,1,Oc1ccccc1Br,le15,0,0,0,0,randonly selected as training point or test point
"Phenol, 4-bromo-",363.95,1,Oc1ccc(Br)cc1,le15,0,0,0,0,randonly selected as training point or test point
"Phenol, 3-bromo-",364.25,1,Oc1cccc(Br)c1,le15,0,0,0,0,randonly selected as training point or test point
5-Bromo-2-pyridylamine,366.55,1,Nc1ccc(Br)cn1,le15,0,0,0,0,randonly selected as training point or test point
"1,3-Propanediol, 2,2-bis(chloromethyl)-",429.45,1,OCC(CO)(CCl)CCl,le15,0,0,0,0,randonly selected as training point or test point
"Ethane, 1,1'-(methylenebis(oxy))bis(2-chloro-",350.05,1,ClCCOCOCCCl,le15,0,0,0,0,randonly selected as training point or test point
"Naphthalene, 1-nitro-",437.15,1,O=[N+]([O-])c1cccc2ccccc12,le15,0,0,0,0,randonly selected as training point or test point
8-Quinolinecarboxylic acid,460.65,1,O=C(O)c1cccc2cccnc12,le15,0,0,0,1,randonly selected as training point or test point
"2-Naphthalenol, 1-nitroso-",443.25,1,O=Nc1c(O)ccc2ccccc12,le15,0,0,0,0,randonly selected as training point or test point
"1H-Pyrrole-2,5-dione, 1-phenyl-",409.95,1,O=C1C=CC(=O)N1c1ccccc1,le15,0,0,0,0,randonly selected as training point or test point
"4-Amino-1,2-naphthoquinone",433.15,1,NC1=CC(=O)C(=O)c2ccccc21,le15,0,0,0,0,randonly selected as training point or test point
"Naphthalene, 2-nitro-",431.85,1,O=[N+]([O-])c1ccc2ccccc2c1,le15,0,0,0,0,randonly selected as training point or test point
8-Ethoxyquinoline,381.15,1,CCOc1cccc2cccnc12,le15,0,0,0,0,randonly selected as training point or test point
"1H-Pyrazole-5-amine, 3-methyl-1-phenyl-",428.35,1,Cc1cc(N)n(-c2ccccc2)n1,le15,0,0,0,0,randonly selected as training point or test point
"6-Quinoxalinamine, 2,3-dimethyl-",457.05,1,Cc1nc2ccc(N)cc2nc1C,le15,0,0,0,0,randonly selected as training point or test point
"1,3,3-trimethyl-2-methylideneindole",367.15,1,C=C1N(C)c2ccccc2C1(C)C,le15,0,0,0,0,randonly selected as training point or test point
"Quinoline, 1,2-dihydro-2,2,4-trimethyl-",388.15,1,CC1=CC(C)(C)Nc2ccccc21,le15,0,0,0,0,randonly selected as training point or test point
"Carbamic acid, 2-ethylhexyl ester",373.85,1,CCCCC(CC)COC(N)=O,le15,0,0,0,1,randonly selected as training point or test point
"Ethanol, 2-(dibutylamino)-",364.85,1,CCCCN(CCO)CCCC,le15,0,0,0,0,randonly selected as training point or test point
"1,2-Ethanediamine, N-(2-(dimethylamino)ethyl)-N,N',N'-trimethyl-",326.45,1,CN(C)CCN(C)CCN(C)C,le15,0,0,0,0,randonly selected as training point or test point
"Acetic acid, bromochloro-",356.85,1,O=C(O)C(Cl)Br,le15,0,0,0,1,randonly selected as training point or test point
"Phenol, 4-chloro-3-nitro-",413.65,1,O=[N+]([O-])c1cc(O)ccc1Cl,le15,0,0,0,0,randonly selected as training point or test point
"Phenol, 4-chloro-2-nitro-",373.55,1,O=[N+]([O-])c1cc(Cl)ccc1O,le15,0,0,0,0,randonly selected as training point or test point
"Phenol, 2-chloro-4-nitro-",402.75,1,O=[N+]([O-])c1ccc(O)c(Cl)c1,le15,0,0,0,0,randonly selected as training point or test point
"s-Triazine, 2-amino-4-chloro-6-(ethylamino)- (8CI)",284.15,1,CCNc1nc(N)nc(Cl)n1,le15,0,0,0,0,randonly selected as training point or test point
"Acetamide, 2-chloro-N,N-di-2-propenyl-",372.95,1,C=CCN(CC=C)C(=O)CCl,le15,0,0,0,0,randonly selected as training point or test point
"Methane, dibromo-",370.15,1,BrCBr,le15,0,0,0,0,randonly selected as training point or test point
"3-Pyridinol, 2-bromo-",421.55,1,Oc1cccnc1Br,le15,0,0,0,0,randonly selected as training point or test point
"2,2,2-trifluoro-1-phenylethanone",314.85,1,O=C(c1ccccc1)C(F)(F)F,le15,0,0,0,0,randonly selected as training point or test point
"alpha,alpha,alpha-Trifluoro-3-tolualdehyde",341.45,1,O=Cc1cccc(C(F)(F)F)c1,le15,0,0,0,0,randonly selected as training point or test point
"Ethanediamide, N,N'-dimethyl-N,N'-dinitroso- (9CI)",366.05,1,CN(N=O)C(=O)C(=O)N(C)N=O,le15,0,0,0,0,randonly selected as training point or test point
"1,4-Naphthoquinone, 5-hydroxy- (8CI)",474.45,1,O=C1C=CC(=O)c2c(O)cccc21,le15,0,0,0,0,randonly selected as training point or test point
"Quinoline, 8-nitro-",422.35,1,O=[N+]([O-])c1cccc2cccnc12,le15,0,0,0,0,randonly selected as training point or test point
diethyl 2-oxopropanedioate,363.35,1,CCOC(=O)C(=O)C(=O)OCC,le15,0,0,0,0,randonly selected as training point or test point
"Quinoline, 4-nitro-",422.35,1,O=[N+]([O-])c1ccnc2ccccc12,le15,0,0,0,0,randonly selected as training point or test point
"Isocyanic acid, 4-methyl-m-phenylene ester (8CI)",383.65,1,Cc1ccc(N=C=O)cc1N=C=O,le15,0,0,0,1,randonly selected as training point or test point
"2-Propynoic acid, 3-phenyl-, ethyl ester (9CI)",398.05,1,CCOC(=O)C#Cc1ccccc1,le15,0,0,0,1,randonly selected as training point or test point
"3H-Pyrazol-3-one, 2,4-dihydro-5-methyl-2-phenyl-",428.35,1,CC1=NN(c2ccccc2)C(=O)C1,le15,0,0,0,0,randonly selected as training point or test point
"Butanedioic acid, diethyl ester",372.65,1,CCOC(=O)CCC(=O)OCC,le15,0,0,0,1,randonly selected as training point or test point
"Malonic acid, methyl-, diethyl ester (8CI)",349.85,1,CCOC(=O)C(C)C(=O)OCC,le15,0,0,0,1,randonly selected as training point or test point
4-acetyloxybutyl acetate,378.35,1,CC(=O)OCCCCOC(C)=O,le15,0,0,0,0,randonly selected as training point or test point
3-ethyl-3-methylpentanedioic acid,430.45,1,CCC(C)(CC(=O)O)CC(=O)O,le15,0,0,0,1,randonly selected as training point or test point
"1,3-Dioxolane-2-acetic acid, 2-methyl-, ethyl ester",353.95,1,CCOC(=O)CC1(C)OCCO1,le15,0,0,0,1,randonly selected as training point or test point
2-propanoyloxyethyl propanoate,371.45,1,CCC(=O)OCCOC(=O)CC,le15,0,0,0,0,randonly selected as training point or test point
Octanedioic acid,459.65,1,O=C(O)CCCCCCC(=O)O,le15,0,0,0,1,randonly selected as training point or test point
"Hexanedioic acid, 1,6-dimethyl ester",380.35,1,COC(=O)CCCCC(=O)OC,le15,0,0,0,1,randonly selected as training point or test point
N-Ethyl-L-glutamine,485.25,1,CCN[C@@H](CCC(N)=O)C(=O)O,le15,0,0,0,0,randonly selected as training point or test point
"Adipic acid, dihydrazide (8CI)",541.05,1,NNC(=O)CCCCC(=O)NN,le15,0,0,0,1,randonly selected as training point or test point
"Phenol, p-(1-cyclohexen-1-yl)-",410.25,1,Oc1ccc(C2=CCCCC2)cc1,le15,0,0,0,0,randonly selected as training point or test point
"Propionitrile, 3-(N-ethylanilino)- (6CI,7CI,8CI)",405.95,1,CCN(CCC#N)c1ccccc1,le15,0,0,0,0,randonly selected as training point or test point
"1H-Indole-3-ethanamine, alpha-methyl- (9CI)",462.15,1,CC(N)Cc1c[nH]c2ccccc12,le15,0,0,0,0,randonly selected as training point or test point
"Propaneperoxoic acid, 2,2-dimethyl-, 1,1-dimethylethyl ester",326.65,1,CC(C)(C)OOC(=O)C(C)(C)C,le15,0,0,0,1,randonly selected as training point or test point
bis(2-methylpropyl) carbonate,344.65,1,CC(C)COC(=O)OCC(C)C,le15,0,0,0,0,randonly selected as training point or test point
dibutyl carbonate,349.15,1,CCCCOC(=O)OCCCC,le15,0,0,0,0,randonly selected as training point or test point
"Naphthalene, 1,2,3,4-tetrahydro-1,1,6-trimethyl-",370.95,1,Cc1ccc2c(c1)CCCC2(C)C,le15,0,0,0,0,randonly selected as training point or test point
"Bicyclo(2.2.1)hept-5-ene, 2-(4-cyclohexenyl)-",352.95,1,C1=CCC(C2CC3C=CC2C3)CC1,le15,0,0,0,0,randonly selected as training point or test point
"1,7-Octanediol, 3,7-dimethyl-",381.65,1,CC(CCO)CCCC(C)(C)O,le15,0,0,0,0,randonly selected as training point or test point
"Decane-1,2-diol",386.15,1,CCCCCCCCC(O)CO,le15,0,0,0,0,randonly selected as training point or test point
"Ethanol, 2-((2-ethylhexyl)oxy)-",337.15,1,CCCCC(CC)COCCO,le15,0,0,0,0,randonly selected as training point or test point
2-methyl-1-[1-(2-methylpropoxy)ethoxy]propane,309.05,1,CC(C)COC(C)OCC(C)C,le15,0,0,0,0,randonly selected as training point or test point
diethoxy-methyl-prop-2-enylsilane,315.65,1,C=CC[Si](C)(OCC)OCC,le15,1,1,0,0,randonly selected as training point or test point
3-methyl-1-(3-methylbutylsulfanyl)butane,349.55,1,CC(C)CCSCCC(C)C,le15,0,0,0,0,randonly selected as training point or test point
1-ethylsulfanyloctane,370.45,1,CCCCCCCCSCC,le15,0,0,0,0,randonly selected as training point or test point
1decanethiol,371.0,1,CCCCCCCCCCS,le15,0,0,0,0,randonly selected as training point or test point
"Benzene, 1-chloro-4-(methylsulfinyl)-",408.65,1,CS(=O)c1ccc(Cl)cc1,le15,0,0,0,0,randonly selected as training point or test point
"Benzene, 1-bromo-4-fluoro-",326.15,1,Fc1ccc(Br)cc1,le15,0,0,0,0,randonly selected as training point or test point
1-bromo-3-fluorobenzene,312.05,1,Fc1cccc(Br)c1,le15,0,0,0,0,randonly selected as training point or test point
"Benzaldehyde, 2,6-dichloro-",370.55,1,O=Cc1c(Cl)cccc1Cl,le15,0,0,0,0,randonly selected as training point or test point
"Benzoyl chloride, 4-chloro-",378.15,1,O=C(Cl)c1ccc(Cl)cc1,le15,0,0,0,0,randonly selected as training point or test point
"Benzoyl chloride, m-chloro- (8CI)",383.15,1,O=C(Cl)c1cccc(Cl)c1,le15,0,0,0,0,randonly selected as training point or test point
"Benzaldehyde, 2,4-dichloro-",373.35,1,O=Cc1ccc(Cl)cc1Cl,le15,0,0,0,0,randonly selected as training point or test point
"Benzaldehyde, 2,3-dichloro-",372.35,1,O=Cc1cccc(Cl)c1Cl,le15,0,0,0,0,randonly selected as training point or test point
"2,5-dichlorobenzaldehyde",369.75,1,O=Cc1cc(Cl)ccc1Cl,le15,0,0,0,0,randonly selected as training point or test point
"3,5-dichlorobenzaldehyde",371.45,1,O=Cc1cc(Cl)cc(Cl)c1,le15,0,0,0,0,randonly selected as training point or test point
"Benzaldehyde, 3,4-dichloro-",375.15,1,O=Cc1ccc(Cl)c(Cl)c1,le15,0,0,0,0,randonly selected as training point or test point
"o-Xylene, alpha,alpha'-dichloro-",380.15,1,ClCc1ccccc1CCl,le15,0,0,0,0,randonly selected as training point or test point
"m-Xylene, alpha,alpha'-dichloro-",385.15,1,ClCc1cccc(CCl)c1,le15,0,0,0,0,randonly selected as training point or test point
"1,4-dichloro-2,5-dimethylbenzene",359.25,1,Cc1cc(Cl)c(C)cc1Cl,le15,0,0,0,0,randonly selected as training point or test point