compound,flashpoint,pure substance,smiles,source,is_silicon,is_metallic,is_tin,is_acid,data type
Pyruvic acid,276.15,1,CC(=O)C(=O)O,hazardous materials,0,0,0,1,randonly selected as training point or test point
Resorcinol,400.15,1,Oc1cccc(O)c1,hazardous materials,0,0,0,0,randonly selected as training point or test point
Salicylaldehyde,351.15,1,O=Cc1ccccc1O,hazardous materials,0,0,0,0,randonly selected as training point or test point
Salicylic acid,430.15,1,O=C(O)c1ccccc1O,hazardous materials,0,0,0,1,randonly selected as training point or test point
Stearic acid,469.15,1,CCCCCCCCCCCCCCCCCC(=O)O,hazardous materials,0,0,0,1,randonly selected as training point or test point
Styrene,304.15,1,C=Cc1ccccc1,hazardous materials,0,0,0,0,randonly selected as training point or test point
Succinonitrile,405.15,1,N#CCCC#N,hazardous materials,0,0,0,0,randonly selected as training point or test point
m-Terphenyl,408.15,1,c1ccc(-c2cccc(-c3ccccc3)c2)cc1,hazardous materials,0,0,0,0,randonly selected as training point or test point
o-Terphenyl,436.15,1,c1ccc(-c2ccccc2-c2ccccc2)cc1,hazardous materials,0,0,0,0,randonly selected as training point or test point
"1,2,4,5-Tetrachlorobenzene",428.15,1,Clc1cc(Cl)c(Cl)cc1Cl,hazardous materials,0,0,0,0,randonly selected as training point or test point
Tetradecane,373.15,1,CCCCCCCCCCCCCC,hazardous materials,0,0,0,0,randonly selected as training point or test point
Tetraethylenepentamine,436.15,1,NCCNCCNCCNCCN,hazardous materials,0,0,0,0,randonly selected as training point or test point
Tetraethyl lead,366.15,1,CC[Pb](CC)(CC)CC,hazardous materials,0,1,0,0,randonly selected as training point or test point
Tetrahydrofuran,259.15,1,C1CCOC1,hazardous materials,0,0,0,0,randonly selected as training point or test point
Tetrahydronaphthalene,344.15,1,c1ccc2c(c1)CCCC2,hazardous materials,0,0,0,0,randonly selected as training point or test point
"2,2'-Thiodiethanol",433.15,1,OCCSCCO,hazardous materials,0,0,0,0,randonly selected as training point or test point
Thiophene,272.15,1,c1ccsc1,hazardous materials,0,0,0,0,randonly selected as training point or test point
Toluene,277.55,1,Cc1ccccc1,hazardous materials,0,0,0,0,randonly selected as training point or test point
m-Toluidine,359.15,1,Cc1cccc(N)c1,hazardous materials,0,0,0,0,randonly selected as training point or test point
o-Toluidine,358.15,1,Cc1ccccc1N,hazardous materials,0,0,0,0,randonly selected as training point or test point
p-Toluidine,360.15,1,Cc1ccc(N)cc1,hazardous materials,0,0,0,0,randonly selected as training point or test point
Triamylamine,375.15,1,CCCCCN(CCCCC)CCCCC,hazardous materials,0,0,0,0,randonly selected as training point or test point
Tri-n-butyl amine,359.15,1,CCCCN(CCCC)CCCC,hazardous materials,0,0,0,0,randonly selected as training point or test point
Tributyl phosphate,419.15,1,CCCCOP(=O)(OCCCC)OCCCC,hazardous materials,0,0,0,0,randonly selected as training point or test point
"1,2,4-Trichlorobenzene",372.15,1,Clc1ccc(Cl)c(Cl)c1,hazardous materials,0,0,0,0,randonly selected as training point or test point
"1,2,3-Trichloropropane",355.15,1,ClCC(Cl)CCl,hazardous materials,0,0,0,0,randonly selected as training point or test point
Tridecanol,394.15,1,CCCCCCCCCCCCCO,hazardous materials,0,0,0,0,randonly selected as training point or test point
Triethanolamine,452.15,1,OCCN(CCO)CCO,hazardous materials,0,0,0,0,randonly selected as training point or test point
Triethylene glycol,450.15,1,OCCOCCOCCO,hazardous materials,0,0,0,0,randonly selected as training point or test point
Triethylene-tetramine,408.15,1,NCCNCCNCCN,hazardous materials,0,0,0,0,randonly selected as training point or test point
Trimethyl amine,266.15,1,CN(C)C,hazardous materials,0,0,0,0,randonly selected as training point or test point
"2,2,4-Trimethyl pentane",261.15,1,CC(C)CC(C)(C)C,hazardous materials,0,0,0,0,randonly selected as training point or test point
"2,4,4-Trimethyl-2-pentene",275.15,1,CC(C)=CC(C)(C)C,hazardous materials,0,0,0,0,randonly selected as training point or test point
"1,3,5-Trioxane",318.15,1,C1OCOCO1,hazardous materials,0,0,0,0,randonly selected as training point or test point
Triphenyl phosphate,493.15,1,O=P(Oc1ccccc1)(Oc1ccccc1)Oc1ccccc1,hazardous materials,0,0,0,0,randonly selected as training point or test point
Triphenyl phosphine,453.15,1,c1ccc(P(c2ccccc2)c2ccccc2)cc1,hazardous materials,0,0,0,0,randonly selected as training point or test point
Tripropylamine,314.15,1,CCCN(CCC)CCC,hazardous materials,0,0,0,0,randonly selected as training point or test point
Tritolyl phosphate,498.15,1,Cc1ccccc1OP(=O)(Oc1ccccc1C)Oc1ccccc1C,hazardous materials,0,0,0,0,randonly selected as training point or test point
Valeraldehyde,285.15,1,CCCCC=O,hazardous materials,0,0,0,0,randonly selected as training point or test point
Valeric acid,369.15,1,CCCCC(=O)O,hazardous materials,0,0,0,1,randonly selected as training point or test point
Vinyl acetate,265.15,1,C=COC(C)=O,hazardous materials,0,0,0,0,randonly selected as training point or test point
Vinyl chloride,195.15,1,C=CCl,hazardous materials,0,0,0,0,randonly selected as training point or test point
Vinylidene chloride,258.15,1,C=C(Cl)Cl,hazardous materials,0,0,0,0,randonly selected as training point or test point
m-Xylene,302.15,1,Cc1cccc(C)c1,hazardous materials,0,0,0,0,randonly selected as training point or test point
o-Xylene,305.15,1,Cc1ccccc1C,hazardous materials,0,0,0,0,randonly selected as training point or test point
p-Xylene,300.15,1,Cc1ccc(C)cc1,hazardous materials,0,0,0,0,randonly selected as training point or test point
Xylidine,370.15,1,Cc1cccc(N)c1C,hazardous materials,0,0,0,0,randonly selected as training point or test point
Ethylene,137.15,1,C=C,le15,0,0,0,0,randonly selected as training point or test point
Ethane,138.0,1,CC,le15,0,0,0,0,randonly selected as training point or test point
Methylamine,211.0,1,CN,le15,0,0,0,0,randonly selected as training point or test point
Methanol,284.261,1,CO,le15,0,0,0,0,randonly selected as training point or test point
1propyne,185.15,1,C#CC,le15,0,0,0,0,randonly selected as training point or test point
Acetonitrile,275.15,1,CC#N,le15,0,0,0,0,randonly selected as training point or test point
Cyanamide,274.35,1,N#CN,le15,0,0,0,0,randonly selected as training point or test point
Propene,165.15,1,C=CC,le15,0,0,0,0,randonly selected as training point or test point
Cyclopropane,178.0,1,C1CC1,le15,0,0,0,0,randonly selected as training point or test point
Propene,165.0,1,C=CC,le15,0,0,0,0,randonly selected as training point or test point
propane,169.15,1,CCC,le15,0,0,0,0,randonly selected as training point or test point
Formamide,448.15,1,NC=O,le15,0,0,0,0,randonly selected as training point or test point
Monoethylamine,256.15,1,CCN,le15,0,0,0,0,randonly selected as training point or test point
Dimethylamine,255.0,1,CNC,le15,0,0,0,0,randonly selected as training point or test point
Ethylamine,256.0,1,CCN,le15,0,0,0,0,randonly selected as training point or test point
Formicacid,342.0,1,O=CO,le15,0,0,0,1,randonly selected as training point or test point
"Hydrazine, methyl-",294.15,1,CNN,le15,0,0,0,0,randonly selected as training point or test point
Methyl hydroperoxide,274.25,1,COO,le15,0,0,0,0,randonly selected as training point or test point
Methanethiol,255.0,1,CS,le15,0,0,0,0,randonly selected as training point or test point
Propiononitrile,279.15,1,CCC#N,le15,0,0,0,0,randonly selected as training point or test point
2propyn1ol,306.0,1,C#CCO,le15,0,0,0,0,randonly selected as training point or test point
2-aminoacetonitrile,326.25,1,N#CCN,le15,0,0,0,0,randonly selected as training point or test point
(Z)-but-2-ene,200.35,1,C/C=C\C,le15,0,0,0,0,randonly selected as training point or test point
1butene,193.0,1,C=CCC,le15,0,0,0,0,randonly selected as training point or test point
Cyclobutane,208.0,1,C1CCC1,le15,0,0,0,0,randonly selected as training point or test point
Isobutene,197.0,1,C=C(C)C,le15,0,0,0,0,randonly selected as training point or test point
"Acetonitrile, hydroxy-",329.25,1,N#CCO,le15,0,0,0,0,randonly selected as training point or test point
Cyclopropanamine,274.15,1,NC1CC1,le15,0,0,0,0,randonly selected as training point or test point
2-Propen-1-amine,245.15,1,C=CCN,le15,0,0,0,0,randonly selected as training point or test point
Cyclopropylamine,248.0,1,NC1CC1,le15,0,0,0,0,randonly selected as training point or test point
Trimethylene oxide (8CI),253.15,1,C1COC1,le15,0,0,0,0,randonly selected as training point or test point
2propene1ol,294.0,1,C=CCO,le15,0,0,0,0,randonly selected as training point or test point
PropyleneOxide,236.0,1,CC1CO1,le15,0,0,0,0,randonly selected as training point or test point
"Acetaldehyde, oxime",313.15,1,CC=NO,le15,0,0,0,0,randonly selected as training point or test point
propylamine,247.0,1,CCCN,le15,0,0,0,0,randonly selected as training point or test point
Trimethylamine,267.0,1,CN(C)C,le15,0,0,0,0,randonly selected as training point or test point
Hydrazinecarboxaldehyde,385.15,1,NNC=O,le15,0,0,0,0,randonly selected as training point or test point
Isopropyl alcohol,284.817,1,CC(C)O,le15,0,0,0,0,randonly selected as training point or test point
"Hydrazine, 1,1-dimethyl-",274.25,1,CN(C)N,le15,0,0,0,0,randonly selected as training point or test point
Ethylene sulfide,283.15,1,C1CS1,le15,0,0,0,0,randonly selected as training point or test point
"Methane, nitro-",308.15,1,C[N+](=O)[O-],le15,0,0,0,0,randonly selected as training point or test point
"Ethanol, 2-amino-",366.45,1,NCCO,le15,0,0,0,0,randonly selected as training point or test point
carbonic acid,442.95,1,O=C(O)O,le15,0,0,0,1,randonly selected as training point or test point
"Hydroperoxide, ethyl",284.45,1,CCOO,le15,0,0,0,0,randonly selected as training point or test point
Ethylene glycol,381.35,1,OCCO,le15,0,0,0,0,randonly selected as training point or test point
"Ethylene, chloro-",255.35,1,C=CCl,le15,0,0,0,0,randonly selected as training point or test point
"Ethanol, 2-fluoro-",304.25,1,OCCF,le15,0,0,0,0,randonly selected as training point or test point
"2-Propenenitrile, 2-methyl-",285.15,1,C=C(C)C#N,le15,0,0,0,0,randonly selected as training point or test point
"Isocrotononitrile (6CI,7CI)",293.15,1,C/C=C\C#N,le15,0,0,0,0,randonly selected as training point or test point
2-Butenenitrile,289.15,1,CC=CC#N,le15,0,0,0,0,randonly selected as training point or test point
Methacrylonitrile,274.0,1,C=C(C)C#N,le15,0,0,0,0,randonly selected as training point or test point
Pyrrole,306.0,1,c1cc[nH]c1,le15,0,0,0,0,randonly selected as training point or test point
but-3-yn-2-one,272.15,1,C#CC(C)=O,le15,0,0,0,0,randonly selected as training point or test point
Furan,238.0,1,c1ccoc1,le15,0,0,0,0,randonly selected as training point or test point
1H-Imidazole,418.15,1,c1c[nH]cn1,le15,0,0,0,0,randonly selected as training point or test point
1pentyne,239.0,1,C#CCCC,le15,0,0,0,0,randonly selected as training point or test point
2pentyne,243.0,1,CC#CCC,le15,0,0,0,0,randonly selected as training point or test point
Cyclopentene,273.0,1,C1=CCCC1,le15,0,0,0,0,randonly selected as training point or test point
"1,2-oxazole",282.05,1,c1cnoc1,le15,0,0,0,0,randonly selected as training point or test point
"1,3-oxazole",292.039,1,c1cocn1,le15,0,0,0,0,randonly selected as training point or test point
2H-triazole,380.15,1,c1cn[nH]n1,le15,0,0,0,0,randonly selected as training point or test point
"1H-1,2,4-Triazole",412.25,1,c1nc[nH]n1,le15,0,0,0,0,randonly selected as training point or test point
"Propanenitrile, 2-methyl-",281.15,1,CC(C)C#N,le15,0,0,0,0,randonly selected as training point or test point
Butanenitrile,289.15,1,CCCC#N,le15,0,0,0,0,randonly selected as training point or test point
"2,5-dihydro-1H-pyrrole",278.95,1,C1=CCNC1,le15,0,0,0,0,randonly selected as training point or test point
"2-Propyn-1-amine, N-methyl-",273.75,1,C#CCNC,le15,0,0,0,0,randonly selected as training point or test point
2-Propynoic acid,332.05,1,C#CC(=O)O,le15,0,0,0,1,randonly selected as training point or test point
"2-Propenal, 2-methyl-",258.15,1,C=C(C)C=O,le15,0,0,0,0,randonly selected as training point or test point
But-2-yn-1-ol,324.15,1,CC#CCO,le15,0,0,0,0,randonly selected as training point or test point
But-3-yn-1-ol,309.15,1,C#CCCO,le15,0,0,0,0,randonly selected as training point or test point
ethynoxyethane,282.15,1,C#COCC,le15,0,0,0,0,randonly selected as training point or test point
cyclobutanone,283.15,1,O=C1CCC1,le15,0,0,0,0,randonly selected as training point or test point
"2,3-dihydrofuran",249.15,1,C1=COCC1,le15,0,0,0,0,randonly selected as training point or test point
"2,5-dihydrofuran",256.45,1,C1=CCOC1,le15,0,0,0,0,randonly selected as training point or test point
Crotonaldehyde,282.05,1,C/C=C/C=O,le15,0,0,0,0,randonly selected as training point or test point
1-Butyn-3-ol,298.75,1,C#CC(C)O,le15,0,0,0,0,randonly selected as training point or test point
2butenal,286.0,1,CC=CC=O,le15,0,0,0,0,randonly selected as training point or test point
Cyclobutanone,283.0,1,O=C1CCC1,le15,0,0,0,0,randonly selected as training point or test point
"Cyanamide, dimethyl-",331.45,1,CN(C)C#N,le15,0,0,0,0,randonly selected as training point or test point
"Propanenitrile, 3-amino-",339.65,1,N#CCCN,le15,0,0,0,0,randonly selected as training point or test point
1-Pentene,245.15,1,C=CCCC,le15,0,0,0,0,randonly selected as training point or test point
2methyl1butene,239.0,1,C=C(C)CC,le15,0,0,0,0,randonly selected as training point or test point
2methyl2butene,228.0,1,CC=C(C)C,le15,0,0,0,0,randonly selected as training point or test point
3methyl1butene,217.0,1,C=CC(C)C,le15,0,0,0,0,randonly selected as training point or test point
2-Propenamide,352.15,1,C=CC(N)=O,le15,0,0,0,0,randonly selected as training point or test point
2-methoxyacetonitrile,304.85,1,COCC#N,le15,0,0,0,0,randonly selected as training point or test point
"2-Propenal, oxime",303.714,1,C=CC=NO,le15,0,0,0,0,randonly selected as training point or test point
3hydroxypropanenitrile,402.0,1,N#CCCO,le15,0,0,0,0,randonly selected as training point or test point
Pyrrolidine,275.928,1,C1CCNC1,le15,0,0,0,0,randonly selected as training point or test point
N-methylprop-2-en-1-amine,244.85,1,C=CCNC,le15,0,0,0,0,randonly selected as training point or test point
Cyclobutylamine,269.0,1,NC1CCC1,le15,0,0,0,0,randonly selected as training point or test point
Propiolactone,343.15,1,O=C1CCO1,le15,0,0,0,0,randonly selected as training point or test point
"Formic acid, ethenyl ester",289.15,1,C=COC=O,le15,0,0,0,1,randonly selected as training point or test point
2-Propenoic acid,341.15,1,C=CC(=O)O,le15,0,0,0,1,randonly selected as training point or test point
"Butane, 1,2-epoxy-",251.15,1,CCC1CO1,le15,0,0,0,0,randonly selected as training point or test point
"Furan, tetrahydro-",252.15,1,C1CCOC1,le15,0,0,0,0,randonly selected as training point or test point
Isopropenyl methyl ether,244.15,1,C=C(C)OC,le15,0,0,0,0,randonly selected as training point or test point
"2-Propen-1-ol, 2-methyl-",306.15,1,C=C(C)CO,le15,0,0,0,0,randonly selected as training point or test point
"Propane, 1,2-epoxy-2-methyl-",273.75,1,CC1(C)CO1,le15,0,0,0,0,randonly selected as training point or test point
3-methoxyprop-1-ene,250.15,1,C=CCOC,le15,0,0,0,0,randonly selected as training point or test point
"(2R,3S)-2,3-dimethyloxirane",251.45,1,C[C@@H]1O[C@@H]1C,le15,0,0,0,0,randonly selected as training point or test point
cyclobutanol,294.15,1,OC1CCC1,le15,0,0,0,0,randonly selected as training point or test point
2-Buten-1-ol,310.15,1,CC=CCO,le15,0,0,0,0,randonly selected as training point or test point
"Propanal, 2-methyl-",249.15,1,CC(C)C=O,le15,0,0,0,0,randonly selected as training point or test point
Methyl ethyl ketone,282.15,1,CCC(C)=O,le15,0,0,0,0,randonly selected as training point or test point
3-Buten-2-ol,289.85,1,C=CC(C)O,le15,0,0,0,0,randonly selected as training point or test point
3-Buten-1-ol,305.35,1,C=CCCO,le15,0,0,0,0,randonly selected as training point or test point
2methyl1propanal,248.0,1,CC(C)C=O,le15,0,0,0,0,randonly selected as training point or test point
3butene2ol,293.0,1,C=CC(C)O,le15,0,0,0,0,randonly selected as training point or test point
"Butane, 2-methyl-",222.15,1,CCC(C)C,le15,0,0,0,0,randonly selected as training point or test point
Isopentane,216.0,1,CCC(C)C,le15,0,0,0,0,randonly selected as training point or test point
1-nitroethene,296.35,1,C=C[N+](=O)[O-],le15,0,0,0,0,randonly selected as training point or test point
Propionamide,358.05,1,CCC(N)=O,le15,0,0,0,0,randonly selected as training point or test point
"2-Propanone, oxime",318.35,1,CC(C)=NO,le15,0,0,0,0,randonly selected as training point or test point
"Guanidine, methyl-",331.25,1,CNC(=N)N,le15,0,0,0,0,randonly selected as training point or test point
"Thiocyanic acid, methyl ester",311.15,1,CSC#N,le15,0,0,0,1,randonly selected as training point or test point
2methyl2propenal,258.0,1,C=C(C)C=O,le15,0,0,0,0,randonly selected as training point or test point
"2-Propanamine, 2-methyl-",264.15,1,CC(C)(C)N,le15,0,0,0,0,randonly selected as training point or test point
"2-Butanamine, (S)- (9CI)",254.15,1,CC[C@H](C)N,le15,0,0,0,0,randonly selected as training point or test point
"Ethanamine, N,N-dimethyl-",237.15,1,CCN(C)C,le15,0,0,0,0,randonly selected as training point or test point
sec-Butylamine,254.15,1,CCC(C)N,le15,0,0,0,0,randonly selected as training point or test point
secButylamine,254.0,1,CCC(C)N,le15,0,0,0,0,randonly selected as training point or test point
tertButylamine,264.0,1,CC(C)(C)N,le15,0,0,0,0,randonly selected as training point or test point
"Acetic acid, 2-oxo-",377.05,1,O=CC(=O)O,le15,0,0,0,1,randonly selected as training point or test point
"2-Propanone, 1-hydroxy-",329.15,1,CC(=O)CO,le15,0,0,0,0,randonly selected as training point or test point
"1-Propanol, 2,3-epoxy-",344.15,1,OCC1CO1,le15,0,0,0,0,randonly selected as training point or test point
"Methanamine, N-methyl-N-nitroso-",334.15,1,CN(C)N=O,le15,0,0,0,0,randonly selected as training point or test point
methylurea,296.25,1,CNC(N)=O,le15,0,0,0,0,randonly selected as training point or test point
"Acetic acid, hydrazide",375.75,1,CC(=O)NN,le15,0,0,0,1,randonly selected as training point or test point
"Diazene, dimethyl-, 1-oxide (9CI)",282.55,1,CN=[N+](C)[O-],le15,0,0,0,0,randonly selected as training point or test point
"Ethane, 1,1'-oxybis-",228.15,1,CCOCC,le15,0,0,0,0,randonly selected as training point or test point
Butyl alcohol,308.15,1,CCCCO,le15,0,0,0,0,randonly selected as training point or test point
"1-Propanol, 2-methyl-",300.928,1,CC(C)CO,le15,0,0,0,0,randonly selected as training point or test point
1-deuteriooxybutane,308.15,1,[2H]OCCCC,le15,0,0,0,0,randonly selected as training point or test point
2methyl1propanol,301.0,1,CC(C)CO,le15,0,0,0,0,randonly selected as training point or test point
secbutanol,299.0,1,CCC(C)O,le15,0,0,0,0,randonly selected as training point or test point
tertbutylalcohol,284.15,1,CC(C)(C)O,le15,0,0,0,0,randonly selected as training point or test point
Trimethylenediamine,322.05,1,NCCCN,le15,0,0,0,0,randonly selected as training point or test point
"N'-methylethane-1,2-diamine",314.25,1,CNCCN,le15,0,0,0,0,randonly selected as training point or test point
prop-2-ene-1-thiol,291.15,1,C=CCS,le15,0,0,0,0,randonly selected as training point or test point
"Propane, 1,2-epithio-",283.15,1,CC1CS1,le15,0,0,0,0,randonly selected as training point or test point
3-chloroprop-1-yne,292.05,1,C#CCCl,le15,0,0,0,0,randonly selected as training point or test point
ethyl nitrite,288.15,1,CCON=O,le15,0,0,0,0,randonly selected as training point or test point
"Acetamide, N-hydroxy- (9CI)",400.75,1,CC(=O)NO,le15,0,0,0,0,randonly selected as training point or test point
"Carbamic acid, methyl ester",378.35,1,COC(N)=O,le15,0,0,0,1,randonly selected as training point or test point
"2-Propanol, 1-amino-",347.05,1,CC(O)CN,le15,0,0,0,0,randonly selected as training point or test point
"Ethanamine, 2-methoxy-",282.55,1,COCCN,le15,0,0,0,0,randonly selected as training point or test point