compound,flashpoint,pure substance,smiles,source,is_silicon,is_metallic,is_tin,is_acid,data type
1-nitrohexane,345.0,1,[N+](=O)([O-])CCCCCC,carroll11,0,0,0,0,randonly selected as training point or test point
2-nitropentane,319.0,1,[N+](=O)([O-])C(C)CCC,carroll11,0,0,0,0,randonly selected as training point or test point
ethylvinylether,228.0,1,C(C)OC=C,carroll11,0,0,0,0,randonly selected as training point or test point
allylamine,245.0,1,C(C=C)N,carroll11,0,0,0,0,randonly selected as training point or test point
acrolein,254.0,1,C(=O)C=C,carroll11,0,0,0,0,randonly selected as training point or test point
"2,3-dihydrofuran",249.0,1,O1CCC=C1,carroll11,0,0,0,0,randonly selected as training point or test point
propylvinylether,251.0,1,C(CC)OC=C,carroll11,0,0,0,0,randonly selected as training point or test point
allylethylether,253.0,1,C(C=C)OCC,carroll11,0,0,0,0,randonly selected as training point or test point
tert-butylvinylether,256.0,1,C(C)(C)(C)OC=C,carroll11,0,0,0,0,randonly selected as training point or test point
2-methyl-2-propenal,258.0,1,CC(C=O)=C,carroll11,0,0,0,0,randonly selected as training point or test point
3-chloro-2-methyl-1-propene,261.0,1,ClCC(=C)C,carroll11,0,0,0,0,randonly selected as training point or test point
"2,3-dihydro-5-methylfuran",261.0,1,CC1=CCCO1,carroll11,0,0,0,0,randonly selected as training point or test point
isobutylvinylether,264.0,1,C(C(C)C)OC=C,carroll11,0,0,0,0,randonly selected as training point or test point
diallylether,266.0,1,C(C=C)OCC=C,carroll11,0,0,0,0,randonly selected as training point or test point
allylpropylether,268.0,1,C(C=C)OCCC,carroll11,0,0,0,0,randonly selected as training point or test point
acrylonitrile,268.0,1,C(C=C)#N,carroll11,0,0,0,0,randonly selected as training point or test point
methylacrylate,270.0,1,COC(C=C)=O,carroll11,0,0,0,0,randonly selected as training point or test point
ethylacrylate,281.0,1,C(C)OC(C=C)=O,carroll11,0,0,0,0,randonly selected as training point or test point
4-bromo-1-butene,282.0,1,BrCCC=C,carroll11,0,0,0,0,randonly selected as training point or test point
ethylmethacrylate,292.0,1,C(C)OC(C(=C)C)=O,carroll11,0,0,0,0,randonly selected as training point or test point
methylmethacrylate,283.0,1,COC(C(=C)C)=O,carroll11,0,0,0,0,randonly selected as training point or test point
butylmethacrylate,322.0,1,C(CCC)OC(C(=C)C)=O,carroll11,0,0,0,0,randonly selected as training point or test point
isobutylmethacrylate,314.0,1,C(C(C)C)OC(C(=C)C)=O,carroll11,0,0,0,0,randonly selected as training point or test point
isopropenylacetate,283.0,1,C(=C)(C)CC(=O)[O-],carroll11,0,0,0,0,randonly selected as training point or test point
allylformate,279.0,1,C(C=C)C(=O)[O-],carroll11,0,0,0,0,randonly selected as training point or test point
allylacetate,284.0,1,C(C=C)CC(=O)[O-],carroll11,0,0,0,0,randonly selected as training point or test point
allylpropanoate,298.0,1,C(C=C)OC(CC)=O,carroll11,0,0,0,0,randonly selected as training point or test point
allylbutanoate,315.0,1,C(C=C)OC(CCC)=O,carroll11,0,0,0,0,randonly selected as training point or test point
trans-2-butenal,282.0,1,C(\C=C\C)=O,carroll11,0,0,0,0,randonly selected as training point or test point
3-iodo-1-propene,289.0,1,ICC=C,carroll11,0,0,0,0,randonly selected as training point or test point
3-buten-2-ol,293.0,1,CC(C=C)O,carroll11,0,0,0,0,randonly selected as training point or test point
vinylacetate,265.0,1,C(=C)CC(=O)[O-],carroll11,0,0,0,0,randonly selected as training point or test point
vinylpropanoate,279.0,1,C(=C)OC(CC)=O,carroll11,0,0,0,0,randonly selected as training point or test point
vinylbutanoate,293.0,1,C(=C)OC(CCC)=O,carroll11,0,0,0,0,randonly selected as training point or test point
2-butenenitrile,290.0,1,C(C=CC)#N,carroll11,0,0,0,0,randonly selected as training point or test point
diallyldisulfide,335.0,1,C(C=C)SSCC=C,carroll11,0,0,0,0,randonly selected as training point or test point
4-penten-1-ol,316.0,1,C(CCC=C)O,carroll11,0,0,0,0,randonly selected as training point or test point
3-butenenitrile,294.0,1,C(CC=C)#N,carroll11,0,0,0,0,randonly selected as training point or test point
propylacrylate,297.0,1,C(CC)OC(C=C)=O,carroll11,0,0,0,0,randonly selected as training point or test point
mesityloxide,298.0,1,C1(=C(C(=CC(=C1)C)C)OC1=C(C=C(C=C1C)C)C)C,carroll11,0,0,0,0,randonly selected as training point or test point
styrene,304.0,1,C=CC1=CC=CC=C1,carroll11,0,0,0,0,randonly selected as training point or test point
propylmethacrylate,308.0,1,C(CC)OC(C(=C)C)=O,carroll11,0,0,0,0,randonly selected as training point or test point
3-buten-1-ol,305.0,1,C(CC=C)O,carroll11,0,0,0,0,randonly selected as training point or test point
2-methyl-2-propen-1-ol,306.0,1,CC(CO)=C,carroll11,0,0,0,0,randonly selected as training point or test point
butylacrylate,310.0,1,C(CCC)OC(C=C)=O,carroll11,0,0,0,0,randonly selected as training point or test point
4-methylstyrene,319.0,1,CC1=CC=C(C=C)C=C1,carroll11,0,0,0,0,randonly selected as training point or test point
4-pentenylacetate,318.0,1,C(CCC=C)CC(=O)[O-],carroll11,0,0,0,0,randonly selected as training point or test point
5-hexen-1-ol,320.0,1,C(CCCC=C)O,carroll11,0,0,0,0,randonly selected as training point or test point
3-methylstyrene,321.0,1,CC=1C=C(C=C)C=CC1,carroll11,0,0,0,0,randonly selected as training point or test point
acrylicacid,327.0,1,C(C=C)(=O)O,carroll11,0,0,0,1,randonly selected as training point or test point
2-cyclohexen-1-one,329.0,1,C1(C=CCCC1)=O,carroll11,0,0,0,0,randonly selected as training point or test point
trans-2-hexenylacetate,331.0,1,C(=C\CCCC)/CC(=O)[O-],carroll11,0,0,0,0,randonly selected as training point or test point
N-vinyl-N-methylacetamide,336.0,1,C(=C)N(C(C)=O)C,carroll11,0,0,0,0,randonly selected as training point or test point
"3,7-dimethyl-6-octenal",351.0,1,CC(CC=O)CCC=C(C)C,carroll11,0,0,0,0,randonly selected as training point or test point
isophorone,357.0,1,O=C1C=C(CC(C)(C)C1)C,carroll11,0,0,0,0,randonly selected as training point or test point
2-ethylhexylacrylate,359.0,1,C(C)C(COC(C=C)=O)CCCC,carroll11,0,0,0,0,randonly selected as training point or test point
trans-2-pentenoicacid,375.0,1,C(\C=C\CC)(=O)O,carroll11,0,0,0,1,randonly selected as training point or test point
citronellylacetate,376.0,1,C(CC(C)CCC=C(C)C)CC(=O)[O-],carroll11,0,0,0,0,randonly selected as training point or test point
9-decen-1-ol,392.0,1,C(CCCCCCCC=C)O,carroll11,0,0,0,0,randonly selected as training point or test point
5-chloro-1-pentyne,288.0,1,ClCCCC#C,carroll11,0,0,0,0,randonly selected as training point or test point
2-propyn-1-ol,309.0,1,C(C#C)O,carroll11,0,0,0,0,randonly selected as training point or test point
methyl2-octynoate,362.0,1,COC(C#CCCCCC)=O,carroll11,0,0,0,0,randonly selected as training point or test point
"1,1-dichloroethene",248.0,1,ClC(=C)Cl,carroll11,0,0,0,0,randonly selected as training point or test point
fluorobenzene,258.0,1,FC1=CC=CC=C1,carroll11,0,0,0,0,randonly selected as training point or test point
"2,2-dichloropropane",268.0,1,ClC(C)(C)Cl,carroll11,0,0,0,0,randonly selected as training point or test point
4-fluorotoluene,285.0,1,FC1=CC=C(C)C=C1,carroll11,0,0,0,0,randonly selected as training point or test point
4-fluorostyrene,308.0,1,FC1=CC=C(C=C)C=C1,carroll11,0,0,0,0,randonly selected as training point or test point
1-ethyl-4-fluorobenzene,303.0,1,C(C)C1=CC=C(C=C1)F,carroll11,0,0,0,0,randonly selected as training point or test point
"1,2-dimethyl-4-fluorobenzene",313.0,1,CC1=C(C=C(C=C1)F)C,carroll11,0,0,0,0,randonly selected as training point or test point
"1-fluoro-3,5-dimethylbenzene",308.0,1,FC1=CC(=CC(=C1)C)C,carroll11,0,0,0,0,randonly selected as training point or test point
"2,3-butanedione",283.0,1,CC(C(C)=O)=O,carroll11,0,0,0,0,randonly selected as training point or test point
2-fluorotoluene,285.0,1,FC1=C(C)C=CC=C1,carroll11,0,0,0,0,randonly selected as training point or test point
3-fluorotoluene,285.0,1,FC=1C=C(C)C=CC1,carroll11,0,0,0,0,randonly selected as training point or test point
"1,1-diethoxypropane",286.0,1,C(C)OC(CC)OCC,carroll11,0,0,0,0,randonly selected as training point or test point
N-methylmorpholine,287.0,1,CN1CCOCC1,carroll11,0,0,0,0,randonly selected as training point or test point
1-methylpyrrole,288.0,1,CN1C=CC=C1,carroll11,0,0,0,0,randonly selected as training point or test point
pyridine,290.0,1,N1=CC=CC=C1,carroll11,0,0,0,0,randonly selected as training point or test point
chloromethylmethylsulfide,290.0,1,ClCSC,carroll11,0,0,0,0,randonly selected as training point or test point
2-picoline,299.0,1,N1=C(C=CC=C1)C,carroll11,0,0,0,0,randonly selected as training point or test point
"1,2-dichlorobutane",300.0,1,ClCC(CC)Cl,carroll11,0,0,0,0,randonly selected as training point or test point
chlorobenzene,301.0,1,ClC1=CC=CC=C1,carroll11,0,0,0,0,randonly selected as training point or test point
3-methoxypropylamine,296.0,1,COCCCN,carroll11,0,0,0,0,randonly selected as training point or test point
pyrrole,306.0,1,N1C=CC=C1,carroll11,0,0,0,0,randonly selected as training point or test point
"1,2-propanediamine",306.0,1,C(C(C)N)N,carroll11,0,0,0,0,randonly selected as training point or test point
"1,3-dichlorobutane",304.0,1,ClCCC(C)Cl,carroll11,0,0,0,0,randonly selected as training point or test point
morpholine,304.0,1,N1CCOCC1,carroll11,0,0,0,0,randonly selected as training point or test point
3-picoline,309.0,1,N1=CC(=CC=C1)C,carroll11,0,0,0,0,randonly selected as training point or test point
4-picoline,311.0,1,N1=CC=C(C=C1)C,carroll11,0,0,0,0,randonly selected as training point or test point
"2,4-pentanedione",311.0,1,CC(CC(C)=O)=O,carroll11,0,0,0,0,randonly selected as training point or test point
ethylchloroacetate,326.0,1,C(C)OC(CCl)=O,carroll11,0,0,0,0,randonly selected as training point or test point
"1,4-dichlorobutane",316.0,1,ClCCCCCl,carroll11,0,0,0,0,randonly selected as training point or test point
2-chlorotoluene,320.0,1,ClC1=C(C)C=CC=C1,carroll11,0,0,0,0,randonly selected as training point or test point
3-chloro-1-propanethiol,316.0,1,ClCCCS,carroll11,0,0,0,0,randonly selected as training point or test point
2-methoxyethylacetate,316.0,1,COCCOC(C)=O,carroll11,0,0,0,0,randonly selected as training point or test point
"2,4-dimethylpyridine",320.0,1,CC1=NC=CC(=C1)C,carroll11,0,0,0,0,randonly selected as training point or test point
4-chlorotoluene,319.0,1,ClC1=CC=C(C)C=C1,carroll11,0,0,0,0,randonly selected as training point or test point
3-chlorotoluene,323.0,1,ClC=1C=C(C)C=CC1,carroll11,0,0,0,0,randonly selected as training point or test point
benzenethiol,324.0,1,C1(=CC=CC=C1)S,carroll11,0,0,0,0,randonly selected as training point or test point
bromobenzene,324.0,1,BrC1=CC=CC=C1,carroll11,0,0,0,0,randonly selected as training point or test point
2-ethoxyethylacetate,324.0,1,C(C)OCCOC(C)=O,carroll11,0,0,0,0,randonly selected as training point or test point
2-methylanisole,324.0,1,CC1=C(C=CC=C1)OC,carroll11,0,0,0,0,randonly selected as training point or test point
3-methylanisole,325.0,1,CC=1C=C(C=CC1)OC,carroll11,0,0,0,0,randonly selected as training point or test point
2-chloro-1-propanol,324.0,1,ClC(CO)C,carroll11,0,0,0,0,randonly selected as training point or test point
4-methylanisole,326.0,1,CC1=CC=C(C=C1)OC,carroll11,0,0,0,0,randonly selected as training point or test point
benzylmethylether,326.0,1,C(C1=CC=CC=C1)OC,carroll11,0,0,0,0,randonly selected as training point or test point
2-chloroethanol,328.0,1,ClCCO,carroll11,0,0,0,0,randonly selected as training point or test point
"2,4,6-trimethylpyridine",327.0,1,CC1=NC(=CC(=C1)C)C,carroll11,0,0,0,0,randonly selected as training point or test point
4-thiapentanal,334.0,1,C(CCSC)=O,carroll11,0,0,0,0,randonly selected as training point or test point
benzylethylether,332.0,1,C(C1=CC=CC=C1)OCC,carroll11,0,0,0,0,randonly selected as training point or test point
benzylchloride,333.0,1,C(C1=CC=CC=C1)Cl,carroll11,0,0,0,0,randonly selected as training point or test point
benzaldehyde,335.0,1,C(C1=CC=CC=C1)=O,carroll11,0,0,0,0,randonly selected as training point or test point
1-bromo-3-ethylbenzene,344.0,1,BrC1=CC(=CC=C1)CC,carroll11,0,0,0,0,randonly selected as training point or test point
"1,5-dichloropentane",336.0,1,ClCCCCCCl,carroll11,0,0,0,0,randonly selected as training point or test point
1-chloro-4-ethylbenzene,335.0,1,ClC1=CC=C(C=C1)CC,carroll11,0,0,0,0,randonly selected as training point or test point
benzylamine,338.0,1,C(C1=CC=CC=C1)N,carroll11,0,0,0,0,randonly selected as training point or test point
2-mercaptoethanol,341.0,1,SCCO,carroll11,0,0,0,0,randonly selected as training point or test point
aniline,343.0,1,NC1=CC=CC=C1,carroll11,0,0,0,0,randonly selected as training point or test point
2-ethyl-6-methylaniline,375.0,1,C(C)C1=C(N)C(=CC=C1)C,carroll11,0,0,0,0,randonly selected as training point or test point
benzonitrile,343.0,1,C(C1=CC=CC=C1)#N,carroll11,0,0,0,0,randonly selected as training point or test point
benzylmercaptan,343.0,1,C(C1=CC=CC=C1)S,carroll11,0,0,0,0,randonly selected as training point or test point
ethylacetoacetate,343.0,1,C(C)OC(CC(=O)C)=O,carroll11,0,0,0,0,randonly selected as training point or test point
2-butoxyethylacetate,344.0,1,C(CCC)OCCOC(C)=O,carroll11,0,0,0,0,randonly selected as training point or test point
benzylmethylsulfide,346.0,1,C(C1=CC=CC=C1)SC,carroll11,0,0,0,0,randonly selected as training point or test point
3-chloro-1-propanol,346.0,1,ClCCCO,carroll11,0,0,0,0,randonly selected as training point or test point
tert-butylacetoacetate,349.0,1,C(C)(C)(C)OC(CC(=O)C)=O,carroll11,0,0,0,0,randonly selected as training point or test point
iodobenzene,347.0,1,IC1=CC=CC=C1,carroll11,0,0,0,0,randonly selected as training point or test point
3-bromotoluene,348.0,1,BrC=1C=C(C)C=CC1,carroll11,0,0,0,0,randonly selected as training point or test point
"N,N-dimethylaniline",348.0,1,CN(C1=CC=CC=C1)C,carroll11,0,0,0,0,randonly selected as training point or test point
1-bromo-2-ethylbenzene,352.0,1,BrC1=C(C=CC=C1)CC,carroll11,0,0,0,0,randonly selected as training point or test point
acetophenone,350.0,1,C(C)(=O)C1=CC=CC=C1,carroll11,0,0,0,0,randonly selected as training point or test point
2-bromotoluene,351.0,1,BrC1=C(C)C=CC=C1,carroll11,0,0,0,0,randonly selected as training point or test point
N-methylaniline,352.0,1,CNC1=CC=CC=C1,carroll11,0,0,0,0,randonly selected as training point or test point
benzylbromide,352.0,1,C(C1=CC=CC=C1)Br,carroll11,0,0,0,0,randonly selected as training point or test point
"2,5-hexanedione",351.0,1,CC(CCC(C)=O)=O,carroll11,0,0,0,0,randonly selected as training point or test point
methylbenzoate,353.0,1,COC(C1=CC=CC=C1)=O,carroll11,0,0,0,0,randonly selected as training point or test point
ethylbenzoate,357.0,1,C(C)OC(C1=CC=CC=C1)=O,carroll11,0,0,0,0,randonly selected as training point or test point
propylbenzoate,371.0,1,C(CC)OC(C1=CC=CC=C1)=O,carroll11,0,0,0,0,randonly selected as training point or test point
butylbenzoate,380.0,1,C(CCC)OC(C1=CC=CC=C1)=O,carroll11,0,0,0,0,randonly selected as training point or test point
pentylbenzoate,393.0,1,C(CCCC)OC(C1=CC=CC=C1)=O,carroll11,0,0,0,0,randonly selected as training point or test point
1-iodo-3-methylbenzene,356.0,1,IC1=CC(=CC=C1)C,carroll11,0,0,0,0,randonly selected as training point or test point
o-toluidine,358.0,1,NC=1C(=CC=CC1)C,carroll11,0,0,0,0,randonly selected as training point or test point
2-ethylphenol,358.0,1,C(C)C1=C(C=CC=C1)O,carroll11,0,0,0,0,randonly selected as training point or test point
3-methylphenylacetate,358.0,1,CC=1C=C(C=CC1)CC(=O)[O-],carroll11,0,0,0,0,randonly selected as training point or test point
m-cresol,359.0,1,C1=C(C=CC=C1O)C,carroll11,0,0,0,0,randonly selected as training point or test point
3-methylaniline,359.0,1,CC=1C=C(N)C=CC1,carroll11,0,0,0,0,randonly selected as training point or test point
4-ethylaniline,370.0,1,C(C)C1=CC=C(N)C=C1,carroll11,0,0,0,0,randonly selected as training point or test point
3-ethylaniline,358.0,1,C(C)C=1C=C(N)C=CC1,carroll11,0,0,0,0,randonly selected as training point or test point
2-ethylaniline,358.0,1,C(C)C1=C(N)C=CC=C1,carroll11,0,0,0,0,randonly selected as training point or test point
nitrobenzene,361.0,1,[N+](=O)([O-])C1=CC=CC=C1,carroll11,0,0,0,0,randonly selected as training point or test point
"N,N-diethylaniline",361.0,1,C(C)N(C1=CC=CC=C1)CC,carroll11,0,0,0,0,randonly selected as training point or test point
2-isopropylphenol,362.0,1,C(C)(C)C1=C(C=CC=C1)O,carroll11,0,0,0,0,randonly selected as training point or test point
2-iodotoluene,363.0,1,IC1=C(C)C=CC=C1,carroll11,0,0,0,0,randonly selected as training point or test point
4-iodotoluene,363.0,1,IC1=CC=C(C)C=C1,carroll11,0,0,0,0,randonly selected as training point or test point
4-propylanisole,355.0,1,C(CC)C1=CC=C(C=C1)OC,carroll11,0,0,0,0,randonly selected as training point or test point
1-phenyl-2-butanone,364.0,1,C1(=CC=CC=C1)CC(CC)=O,carroll11,0,0,0,0,randonly selected as training point or test point
1-phenylethylacetate,364.0,1,C1(=CC=CC=C1)C(C)OC(C)=O,carroll11,0,0,0,0,randonly selected as training point or test point
benzylalcohol,366.0,1,C(C1=CC=CC=C1)O,carroll11,0,0,0,0,randonly selected as training point or test point
2-propylphenol,366.0,1,C(CC)C1=C(C=CC=C1)O,carroll11,0,0,0,0,randonly selected as training point or test point
"2,4-dimethylphenol",367.0,1,CC1=C(C=CC(=C1)C)O,carroll11,0,0,0,0,randonly selected as training point or test point
3-ethylphenol,367.0,1,C(C)C=1C=C(C=CC1)O,carroll11,0,0,0,0,randonly selected as training point or test point
1-phenylethylpropionate,379.0,1,C1(=CC=CC=C1)C(C)OC(CC)=O,carroll11,0,0,0,0,randonly selected as training point or test point
benzylacetate,363.0,1,C(C1=CC=CC=C1)CC(=O)[O-],carroll11,0,0,0,0,randonly selected as training point or test point
"1,5-pentanedithiol",368.0,1,C(CCCCS)S,carroll11,0,0,0,0,randonly selected as training point or test point
"2,3-dimethylaniline",369.0,1,CC1=C(N)C=CC=C1C,carroll11,0,0,0,0,randonly selected as training point or test point
benzylpropanoate,369.0,1,C(C1=CC=CC=C1)OC(CC)=O,carroll11,0,0,0,0,randonly selected as training point or test point
1-phenyl-1-butanone,361.0,1,C1(=CC=CC=C1)C(CCC)=O,carroll11,0,0,0,0,randonly selected as training point or test point
benzyliodide,370.0,1,C(C1=CC=CC=C1)I,carroll11,0,0,0,0,randonly selected as training point or test point
benzylcyanide,374.0,1,C(C1=CC=CC=C1)C#N,carroll11,0,0,0,0,randonly selected as training point or test point
4-tert-butylaniline,375.0,1,C(C)(C)(C)C1=CC=C(N)C=C1,carroll11,0,0,0,0,randonly selected as training point or test point
3-tert-butylaniline,374.0,1,C(C)(C)(C)C=1C=C(N)C=CC1,carroll11,0,0,0,0,randonly selected as training point or test point
4-butylaniline,375.0,1,C(CCC)C1=CC=C(N)C=C1,carroll11,0,0,0,0,randonly selected as training point or test point
4-propylaniline,376.0,1,C(CC)C1=CC=C(N)C=C1,carroll11,0,0,0,0,randonly selected as training point or test point
2-propylaniline,370.0,1,C(CC)C1=C(N)C=CC=C1,carroll11,0,0,0,0,randonly selected as training point or test point
2-isopropylaniline,368.0,1,C(C)(C)C1=C(N)C=CC=C1,carroll11,0,0,0,0,randonly selected as training point or test point
3-isopropylphenol,377.0,1,C(C)(C)C=1C=C(C=CC1)O,carroll11,0,0,0,0,randonly selected as training point or test point
quinoline,374.0,1,N1=CC=CC2=CC=CC=C12,carroll11,0,0,0,0,randonly selected as training point or test point
2-phenylethylacetate,375.0,1,C1(=CC=CC=C1)CCOC(C)=O,carroll11,0,0,0,0,randonly selected as training point or test point
4-propylphenol,379.0,1,C(CC)C1=CC=C(C=C1)O,carroll11,0,0,0,0,randonly selected as training point or test point
2-phenylethylpropionate,386.0,1,C1(=CC=CC=C1)CCOC(CC)=O,carroll11,0,0,0,0,randonly selected as training point or test point
benzylbutanoate,380.0,1,C(C1=CC=CC=C1)OC(CCC)=O,carroll11,0,0,0,0,randonly selected as training point or test point
2-sec-butylphenol,380.0,1,C(C)(CC)C1=C(C=CC=C1)O,carroll11,0,0,0,0,randonly selected as training point or test point
N-butylaniline,380.0,1,C(CCC)NC1=CC=CC=C1,carroll11,0,0,0,0,randonly selected as training point or test point