compound,flashpoint,pure substance,smiles,source,is_silicon,is_metallic,is_tin,is_acid,data type
prop-2-enyl acetate,295.15,1,CC(=O)OCC=C,pubchem,0,0,0,0,randonly selected as training point or test point
"penta-1,4-diene",277.15,1,C=CCC=C,pubchem,0,0,0,0,randonly selected as training point or test point
2-methylheptane,277.15,1,CCCCCC(C)C,pubchem,0,0,0,0,randonly selected as training point or test point
hex-1-ene,247.15,1,CCCCC=C,pubchem,0,0,0,0,randonly selected as training point or test point
"cyclohexa-1,3-diene",299.15,1,C1CC=CC=C1,pubchem,0,0,0,0,randonly selected as training point or test point
acetyloxymethylimino-methyl-oxidoazanium,372.15,1,CC(=O)OCN=[N+](C)[O-],pubchem,0,0,0,0,randonly selected as training point or test point
hept-1-ene,269.15,1,CCCCCC=C,pubchem,0,0,0,0,randonly selected as training point or test point
butyl formate,291.15,1,CCCCOC=O,pubchem,0,0,0,0,randonly selected as training point or test point
tridecan-2-one,380.15,1,CCCCCCCCCCCC(=O)C,pubchem,0,0,0,0,randonly selected as training point or test point
octadecane,373.15,1,CCCCCCCCCCCCCCCCCC,pubchem,0,0,0,0,randonly selected as training point or test point
dimethylmercury,278.15,1,C[Hg]C,pubchem,0,1,0,0,randonly selected as training point or test point
2-chloro-2-nitropropane,330.15,1,CC(C)([N+](=O)[O-])Cl,pubchem,0,0,0,0,randonly selected as training point or test point
"1,1-dichloro-1-nitroethane",349.15,1,CC([N+](=O)[O-])(Cl)Cl,pubchem,0,0,0,0,randonly selected as training point or test point
1-bromopropan-2-one,324.15,1,CC(=O)CBr,pubchem,0,0,0,0,randonly selected as training point or test point
"2,2-dichloroethanol",351.15,1,C(C(Cl)Cl)O,pubchem,0,0,0,0,randonly selected as training point or test point
3-methylbutan-2-ol,306.15,1,CC(C)C(C)O,pubchem,0,0,0,0,randonly selected as training point or test point
2-chloropropanoic acid,380.15,1,CC(C(=O)O)Cl,pubchem,0,0,0,1,randonly selected as training point or test point
"pentane-2,3-dione",292.15,1,CCC(=O)C(=O)C,pubchem,0,0,0,0,randonly selected as training point or test point
1-chloro-1-nitropropane,335.15,1,CCC([N+](=O)[O-])Cl,pubchem,0,0,0,0,randonly selected as training point or test point
2-ethylpropanedioic acid,358.15,1,CCC(C(=O)O)C(=O)O,pubchem,0,0,0,1,randonly selected as training point or test point
"1-methyl-2,3-dinitrobenzene",480.15,1,CC1=C(C(=CC=C1)[N+](=O)[O-])[N+](=O)[O-],pubchem,0,0,0,0,randonly selected as training point or test point
"N,N-diphenylaniline",453.15,1,C1=CC=C(C=C1)N(C2=CC=CC=C2)C3=CC=CC=C3,pubchem,0,0,0,0,randonly selected as training point or test point
triphenylphosphane,453.15,1,C1=CC=C(C=C1)P(C2=CC=CC=C2)C3=CC=CC=C3,pubchem,0,0,0,0,randonly selected as training point or test point
2-amino-2-methylpropan-1-ol,340.15,1,CC(C)(CO)N,pubchem,0,0,0,0,randonly selected as training point or test point
"2-methyl-1,3-dinitrobenzene",480.15,1,CC1=C(C=CC=C1[N+](=O)[O-])[N+](=O)[O-],pubchem,0,0,0,0,randonly selected as training point or test point
"N,N,2-trimethylaniline",356.15,1,CC1=CC=CC=C1N(C)C,pubchem,0,0,0,0,randonly selected as training point or test point
"4-methyl-1,2-dinitrobenzene",480.15,1,CC1=CC(=C(C=C1)[N+](=O)[O-])[N+](=O)[O-],pubchem,0,0,0,0,randonly selected as training point or test point
1-ethenyl-2-methylbenzene,333.15,1,CC1=CC=CC=C1C=C,pubchem,0,0,0,0,randonly selected as training point or test point
1-(bromomethyl)-2-chlorobenzene,382.15,1,C1=CC=C(C(=C1)CBr)Cl,pubchem,0,0,0,0,randonly selected as training point or test point
1-chloro-2-(chloromethyl)benzene,364.15,1,C1=CC=C(C(=C1)CCl)Cl,pubchem,0,0,0,0,randonly selected as training point or test point
8-methylquinoline,378.15,1,CC1=CC=CC2=C1N=CC=C2,pubchem,0,0,0,0,randonly selected as training point or test point
7-methylquinoline,383.15,1,CC1=CC2=C(C=CC=N2)C=C1,pubchem,0,0,0,0,randonly selected as training point or test point
tert-butyl benzenecarboperoxoate,366.15,1,CC(C)(C)OOC(=O)C1=CC=CC=C1,pubchem,0,0,0,0,randonly selected as training point or test point
"2,4-dibromophenol",386.15,1,C1=CC(=C(C=C1Br)Br)O,pubchem,0,0,0,0,randonly selected as training point or test point
"2,3-dichloropropan-1-ol",364.15,1,C(C(CCl)Cl)O,pubchem,0,0,0,0,randonly selected as training point or test point
dimethyl carbonate,272.15,1,COC(=O)OC,pubchem,0,0,0,0,randonly selected as training point or test point
pyrrolidin-2-one,402.15,1,C1CC(=O)NC1,pubchem,0,0,0,0,randonly selected as training point or test point
"1,3-dichloro-5-nitrobenzene",413.15,1,C1=C(C=C(C=C1Cl)Cl)[N+](=O)[O-],pubchem,0,0,0,0,randonly selected as training point or test point
"1-methyl-3,5-dinitrobenzene",480.15,1,CC1=CC(=CC(=C1)[N+](=O)[O-])[N+](=O)[O-],pubchem,0,0,0,0,randonly selected as training point or test point
"2-methyl-1,4-dinitrobenzene",480.15,1,CC1=C(C=CC(=C1)[N+](=O)[O-])[N+](=O)[O-],pubchem,0,0,0,0,randonly selected as training point or test point
1-(bromomethyl)-3-methylbenzene,355.15,1,CC1=CC(=CC=C1)CBr,pubchem,0,0,0,0,randonly selected as training point or test point
3-methylbenzonitrile,360.15,1,CC1=CC=CC(=C1)C#N,pubchem,0,0,0,0,randonly selected as training point or test point
"N,N-dipentylpentan-1-amine",375.15,1,CCCCCN(CCCCC)CCCCC,pubchem,0,0,0,0,randonly selected as training point or test point
2-phenylmethoxyethanol,402.15,1,C1=CC=C(C=C1)COCCO,pubchem,0,0,0,0,randonly selected as training point or test point
2-chloroethenylbenzene,331.15,1,C1=CC=C(C=C1)C=CCl,pubchem,0,0,0,0,randonly selected as training point or test point
cyclohexyl acetate,331.15,1,CC(=O)OC1CCCCC1,pubchem,0,0,0,0,randonly selected as training point or test point
1-ethenyl-4-methylbenzene,325.15,1,CC1=CC=C(C=C1)C=C,pubchem,0,0,0,0,randonly selected as training point or test point
furan-2-ylmethyl acetate,339.15,1,CC(=O)OCC1=CC=CO1,pubchem,0,0,0,0,randonly selected as training point or test point
methyl butanoate,287.15,1,CCCC(=O)OC,pubchem,0,0,0,0,randonly selected as training point or test point
2-acetyloxypropyl acetate,359.15,1,CC(COC(=O)C)OC(=O)C,pubchem,0,0,0,0,randonly selected as training point or test point
methyl pentanoate,295.15,1,CCCCC(=O)OC,pubchem,0,0,0,0,randonly selected as training point or test point
pentyl propanoate,314.15,1,CCCCCOC(=O)CC,pubchem,0,0,0,0,randonly selected as training point or test point
methylimino(oxo)methane,266.15,1,CN=C=O,pubchem,0,0,0,0,randonly selected as training point or test point
(methyldisulfanyl)methane,297.15,1,CSSC,pubchem,0,0,0,0,randonly selected as training point or test point
2-methylbutan-2-yl acetate,299.15,1,CCC(C)(C)OC(=O)C,pubchem,0,0,0,0,randonly selected as training point or test point
propan-2-yl formate,267.15,1,CC(C)OC=O,pubchem,0,0,0,0,randonly selected as training point or test point
ethyl nitrate,283.15,1,CCO[N+](=O)[O-],pubchem,0,0,0,0,randonly selected as training point or test point
"2,5-dimethylfuran",272.15,1,CC1=CC=C(O1)C,pubchem,0,0,0,0,randonly selected as training point or test point
pentan-2-yl acetate,305.15,1,CCCC(C)OC(=O)C,pubchem,0,0,0,0,randonly selected as training point or test point
hexan-2-ol,314.15,1,CCCCC(C)O,pubchem,0,0,0,0,randonly selected as training point or test point
2-ethoxyacetic acid,371.15,1,CCOCC(=O)O,pubchem,0,0,0,1,randonly selected as training point or test point
propyl nitrate,293.15,1,CCCO[N+](=O)[O-],pubchem,0,0,0,0,randonly selected as training point or test point
3-bromopropan-1-ol,367.15,1,C(CO)CBr,pubchem,0,0,0,0,randonly selected as training point or test point
3-chloropropan-1-ol,346.15,1,C(CO)CCl,pubchem,0,0,0,0,randonly selected as training point or test point
dimethyl hexanedioate,380.15,1,COC(=O)CCCCC(=O)OC,pubchem,0,0,0,0,randonly selected as training point or test point
pentyl acetate,306.15,1,CCCCCOC(=O)C,pubchem,0,0,0,0,randonly selected as training point or test point
1-ethoxybutane,277.15,1,CCCCOCC,pubchem,0,0,0,0,randonly selected as training point or test point
"hexane-1,6-diol",375.15,1,C(CCCO)CCO,pubchem,0,0,0,0,randonly selected as training point or test point
"1,2-diethoxyethane",308.15,1,CCOCCOCC,pubchem,0,0,0,0,randonly selected as training point or test point
2-formyloxyethyl formate,366.15,1,C(COC=O)OC=O,pubchem,0,0,0,0,randonly selected as training point or test point
1-(propyldisulfanyl)propane,339.15,1,CCCSSCCC,pubchem,0,0,0,0,randonly selected as training point or test point
tridecane,352.15,1,CCCCCCCCCCCCC,pubchem,0,0,0,0,randonly selected as training point or test point
tetradecane,373.15,1,CCCCCCCCCCCCCC,pubchem,0,0,0,0,randonly selected as training point or test point
heptadecane,422.15,1,CCCCCCCCCCCCCCCCC,pubchem,0,0,0,0,randonly selected as training point or test point
henicosane,386.15,1,CCCCCCCCCCCCCCCCCCCCC,pubchem,0,0,0,0,randonly selected as training point or test point
docosane,386.15,1,CCCCCCCCCCCCCCCCCCCCCC,pubchem,0,0,0,0,randonly selected as training point or test point
pentacosane,393.15,1,CCCCCCCCCCCCCCCCCCCCCCCCC,pubchem,0,0,0,0,randonly selected as training point or test point
"2,2-dibromoacetic acid",386.15,1,C(C(=O)O)(Br)Br,pubchem,0,0,0,1,randonly selected as training point or test point
2-ethoxy-2-methylpropane,254.15,1,CCOC(C)(C)C,pubchem,0,0,0,0,randonly selected as training point or test point
pentyl formate,299.15,1,CCCCCOC=O,pubchem,0,0,0,0,randonly selected as training point or test point
tricosane,386.15,1,CCCCCCCCCCCCCCCCCCCCCCC,pubchem,0,0,0,0,randonly selected as training point or test point
dichloro(phenyl)phosphane,375.15,1,C1=CC=C(C=C1)P(Cl)Cl,pubchem,0,0,0,0,randonly selected as training point or test point
1-iodo-3-nitrobenzene,345.15,1,C1=CC(=CC(=C1)I)[N+](=O)[O-],pubchem,0,0,0,0,randonly selected as training point or test point
2-ethylhex-2-enal,341.15,1,CCCC=C(CC)C=O,pubchem,0,0,0,0,randonly selected as training point or test point
"1,3-dioxolane",275.15,1,C1COCO1,pubchem,0,0,0,0,randonly selected as training point or test point
4-methylideneoxetan-2-one,307.15,1,C=C1CC(=O)O1,pubchem,0,0,0,0,randonly selected as training point or test point
"cyclododeca-1,5,9-triene",344.15,1,C1CC=CCCC=CCCC=C1,pubchem,0,0,0,0,randonly selected as training point or test point
N-[bis(dimethylamino)phosphoryl]-N-methylmethanamine,379.15,1,CN(C)P(=O)(N(C)C)N(C)C,pubchem,0,0,0,0,randonly selected as training point or test point
tetramethyl silicate,369.15,1,CO[Si](OC)(OC)OC,pubchem,1,1,0,0,randonly selected as training point or test point
dibutyl(dichloro)stannane,441.15,1,CCCC[Sn](CCCC)(Cl)Cl,pubchem,0,1,1,0,randonly selected as training point or test point
"N,N-diethylacetamide",350.15,1,CCN(CC)C(=O)C,pubchem,0,0,0,0,randonly selected as training point or test point
tributyl borate,366.15,1,B(OCCCC)(OCCCC)OCCCC,pubchem,0,1,0,0,randonly selected as training point or test point
2-ethylhexyl 2-methylprop-2-enoate,365.15,1,CCCCC(CC)COC(=O)C(=C)C,pubchem,0,0,0,0,randonly selected as training point or test point
4-methylpent-1-ene,241.15,1,CC(C)CC=C,pubchem,0,0,0,0,randonly selected as training point or test point
propan-2-ylcyclohexane,309.15,1,CC(C)C1CCCCC1,pubchem,0,0,0,0,randonly selected as training point or test point
"2,4,6-tritert-butylphenol",403.15,1,CC(C)(C)C1=CC(=C(C(=C1)C(C)(C)C)O)C(C)(C)C,pubchem,0,0,0,0,randonly selected as training point or test point
N-[2-di(propan-2-yloxy)phosphinothioylsulfanylethyl]benzenesulfonamide,588.15,1,CC(C)OP(=S)(OC(C)C)SCCNS(=O)(=O)C1=CC=CC=C1,pubchem,0,0,0,0,randonly selected as training point or test point
[methoxy(methyl)phosphoryl]oxymethane,316.15,1,COP(=O)(C)OC,pubchem,0,0,0,0,randonly selected as training point or test point
"S-ethyl N,N-dipropylcarbamothioate",389.15,1,CCCN(CCC)C(=O)SCC,pubchem,0,0,0,0,randonly selected as training point or test point
"3,4-dichlorobut-1-ene",386.15,1,C=CC(CCl)Cl,pubchem,0,0,0,0,randonly selected as training point or test point
2-methylpent-1-ene,247.15,1,CCCC(=C)C,pubchem,0,0,0,0,randonly selected as training point or test point
ethyl 3-ethoxypropanoate,332.15,1,CCOCCC(=O)OCC,pubchem,0,0,0,0,randonly selected as training point or test point
oxirane-2-carbaldehyde,304.15,1,C1C(O1)C=O,pubchem,0,0,0,0,randonly selected as training point or test point
N-propan-2-ylaniline,361.15,1,CC(C)NC1=CC=CC=C1,pubchem,0,0,0,0,randonly selected as training point or test point
"4-N-(4-methylpentan-2-yl)-1-N-phenylbenzene-1,4-diamine",477.15,1,CC(C)CC(C)NC1=CC=C(C=C1)NC2=CC=CC=C2,pubchem,0,0,0,0,randonly selected as training point or test point
prop-2-enoyl chloride,287.15,1,C=CC(=O)Cl,pubchem,0,0,0,0,randonly selected as training point or test point
2-hydroxyethyl prop-2-enoate,374.15,1,C=CC(=O)OCCO,pubchem,0,0,0,0,randonly selected as training point or test point
nonan-2-one,337.15,1,CCCCCCCC(=O)C,pubchem,0,0,0,0,randonly selected as training point or test point
undec-1-ene,344.15,1,CCCCCCCCCC=C,pubchem,0,0,0,0,randonly selected as training point or test point
"1,6-diisocyanatohexane",413.15,1,C(CCCN=C=O)CCN=C=O,pubchem,0,0,0,0,randonly selected as training point or test point
5-methyl-1H-imidazole,430.15,1,CC1=CN=CN1,pubchem,0,0,0,0,randonly selected as training point or test point
"(2,6-dimethyl-1,3-dioxan-4-yl) acetate",334.15,1,CC1CC(OC(O1)C)OC(=O)C,pubchem,0,0,0,0,randonly selected as training point or test point
4-nitro-N-phenylaniline,463.15,1,C1=CC=C(C=C1)NC2=CC=C(C=C2)[N+](=O)[O-],pubchem,0,0,0,0,randonly selected as training point or test point
2-hydroxyethyl 2-methylprop-2-enoate,370.15,1,CC(=C)C(=O)OCCO,pubchem,0,0,0,0,randonly selected as training point or test point
dec-1-ene,326.15,1,CCCCCCCCC=C,pubchem,0,0,0,0,randonly selected as training point or test point
1-pentylsulfanylpentane,358.15,1,CCCCCSCCCCC,pubchem,0,0,0,0,randonly selected as training point or test point
1-methylpyrrolidin-2-one,369.15,1,CN1CCCC1=O,pubchem,0,0,0,0,randonly selected as training point or test point
"2,4-dichlorobenzaldehyde",408.15,1,C1=CC(=C(C=C1Cl)Cl)C=O,pubchem,0,0,0,0,randonly selected as training point or test point
3-triethoxysilylpropan-1-amine,371.15,1,CCO[Si](CCCN)(OCC)OCC,pubchem,1,1,0,0,randonly selected as training point or test point
"4-methylpenta-1,3-diene",239.15,1,CC(=CC=C)C,pubchem,0,0,0,0,randonly selected as training point or test point
"1,3-dichlorobut-2-ene",300.15,1,CC(=CCCl)Cl,pubchem,0,0,0,0,randonly selected as training point or test point
2-(2-aminoethoxy)ethanol,400.15,1,C(COCCO)N,pubchem,0,0,0,0,randonly selected as training point or test point
dodecan-1-amine,451.15,1,CCCCCCCCCCCCN,pubchem,0,0,0,0,randonly selected as training point or test point
2-ethenyloxirane,227.15,1,C=CC1CO1,pubchem,0,0,0,0,randonly selected as training point or test point
1-nitrosopyrrolidine,356.15,1,C1CCN(C1)N=O,pubchem,0,0,0,0,randonly selected as training point or test point
"2,3,6-trichlorophenol",352.15,1,C1=CC(=C(C(=C1Cl)O)Cl)Cl,pubchem,0,0,0,0,randonly selected as training point or test point
2-ethylnaphthalene,377.15,1,CCC1=CC2=CC=CC=C2C=C1,pubchem,0,0,0,0,randonly selected as training point or test point
"3-(dimethoxyphosphinothioylsulfanylmethyl)-5-methoxy-1,3,4-thiadiazol-2-one",373.15,1,COC1=NN(C(=O)S1)CSP(=S)(OC)OC,pubchem,0,0,0,0,randonly selected as training point or test point
[dimethyl-(trimethylsilylamino)silyl]methane,282.15,1,C[Si](C)(C)N[Si](C)(C)C,pubchem,1,1,0,0,randonly selected as training point or test point
2-(aziridin-1-yl)ethanol,340.15,1,C1CN1CCO,pubchem,0,0,0,0,randonly selected as training point or test point
S-propyl N-butyl-N-ethylcarbamothioate,324.15,1,CCCCN(CC)C(=O)SCCC,pubchem,0,0,0,0,randonly selected as training point or test point
"2-methyl-N,N-bis(2-methylpropyl)propan-1-amine",324.15,1,CC(C)CN(CC(C)C)CC(C)C,pubchem,0,0,0,0,randonly selected as training point or test point
butyl(trichloro)stannane,354.15,1,CCCC[Sn](Cl)(Cl)Cl,pubchem,0,1,1,0,randonly selected as training point or test point
dimethyl pentanedioate,376.15,1,COC(=O)CCCC(=O)OC,pubchem,0,0,0,0,randonly selected as training point or test point
undecane,338.15,1,CCCCCCCCCCC,pubchem,0,0,0,0,randonly selected as training point or test point
tetradec-1-ene,383.15,1,CCCCCCCCCCCCC=C,pubchem,0,0,0,0,randonly selected as training point or test point
S-ethyl N-cyclohexyl-N-ethylcarbamothioate,412.15,1,CCN(C1CCCCC1)C(=O)SCC,pubchem,0,0,0,0,randonly selected as training point or test point
2-(4-methylphenyl)propan-2-ol,369.15,1,CC1=CC=C(C=C1)C(C)(C)O,pubchem,0,0,0,0,randonly selected as training point or test point
"1,1-diphenylguanidine",443.15,1,C1=CC=C(C=C1)N(C2=CC=CC=C2)C(=N)N,pubchem,0,0,0,0,randonly selected as training point or test point
2-ethylhexyl diphenyl phosphate,497.15,1,CCCCC(CC)COP(=O)(OC1=CC=CC=C1)OC2=CC=CC=C2,pubchem,0,0,0,0,randonly selected as training point or test point
didecyl phenyl phosphite,698.15,1,CCCCCCCCCCOP(OCCCCCCCCCC)OC1=CC=CC=C1,pubchem,0,0,0,0,randonly selected as training point or test point
8-methylnonanal,358.15,1,CC(C)CCCCCCC=O,pubchem,0,0,0,0,randonly selected as training point or test point
"6,6-dimethyl-2-methylidenebicyclo[3.1.1]heptane",304.15,1,CC1(C2CCC(=C)C1C2)C,pubchem,0,0,0,0,randonly selected as training point or test point
8-methylnonyl prop-2-enoate,389.15,1,CC(C)CCCCCCCOC(=O)C=C,pubchem,0,0,0,0,randonly selected as training point or test point
1-chloro-2-ethenylbenzene,332.15,1,C=CC1=CC=CC=C1Cl,pubchem,0,0,0,0,randonly selected as training point or test point
nonane-1-thiol,351.15,1,CCCCCCCCCS,pubchem,0,0,0,0,randonly selected as training point or test point
"dimethyl benzene-1,3-dicarboxylate",411.15,1,COC(=O)C1=CC(=CC=C1)C(=O)OC,pubchem,0,0,0,0,randonly selected as training point or test point
dimethylcyanamide,344.15,1,CN(C)C#N,pubchem,0,0,0,0,randonly selected as training point or test point
"1,4-dichlorobut-2-ene",326.15,1,C(C=CCCl)Cl,pubchem,0,0,0,0,randonly selected as training point or test point
[3-(aminomethyl)phenyl]methanamine,390.15,1,C1=CC(=CC(=C1)CN)CN,pubchem,0,0,0,0,randonly selected as training point or test point
trichloro(chloromethyl)silane,342.15,1,C([Si](Cl)(Cl)Cl)Cl,pubchem,1,1,0,0,randonly selected as training point or test point
1-propoxypropan-2-ol,321.15,1,CCCOCC(C)O,pubchem,0,0,0,0,randonly selected as training point or test point
1-ethoxypropan-2-ol,313.15,1,CCOCC(C)O,pubchem,0,0,0,0,randonly selected as training point or test point
cyclohexanethiol,316.15,1,C1CCC(CC1)S,pubchem,0,0,0,0,randonly selected as training point or test point
"penta-1,3-diene",245.15,1,CC=CC=C,pubchem,0,0,0,0,randonly selected as training point or test point
2-methoxy-2-methylpropane,247.15,1,CC(C)(C)OC,pubchem,0,0,0,0,randonly selected as training point or test point
heptane-1-thiol,319.15,1,CCCCCCCS,pubchem,0,0,0,0,randonly selected as training point or test point
6-methylheptan-1-ol,355.15,1,CC(C)CCCCCO,pubchem,0,0,0,0,randonly selected as training point or test point
1-ethenoxy-2-methoxyethane,291.15,1,COCCOC=C,pubchem,0,0,0,0,randonly selected as training point or test point
tert-butyl prop-2-enoate,292.15,1,CC(C)(C)OC(=O)C=C,pubchem,0,0,0,0,randonly selected as training point or test point
ethylcyclohexane,308.15,1,CCC1CCCCC1,pubchem,0,0,0,0,randonly selected as training point or test point
"(2,6-dibromo-4-cyanophenyl) octanoate",375.15,1,CCCCCCCC(=O)OC1=C(C=C(C=C1Br)C#N)Br,pubchem,0,0,0,0,randonly selected as training point or test point
dichloro(diethyl)silane,297.15,1,CC[Si](CC)(Cl)Cl,pubchem,1,1,0,0,randonly selected as training point or test point
decane,319.15,1,CCCCCCCCCC,pubchem,0,0,0,0,randonly selected as training point or test point
3-(dimethylamino)propanenitrile,337.15,1,CN(C)CCC#N,pubchem,0,0,0,0,randonly selected as training point or test point
"2,3,7,8-tetrachlorodibenzo-p-dioxin",277.15,1,C1=C2C(=CC(=C1Cl)Cl)OC3=CC(=C(C=C3O2)Cl)Cl,pubchem,0,0,0,0,randonly selected as training point or test point
4-octylphenol,386.15,1,CCCCCCCCC1=CC=C(C=C1)O,pubchem,0,0,0,0,randonly selected as training point or test point
octadecan-1-amine,422.15,1,CCCCCCCCCCCCCCCCCCN,pubchem,0,0,0,0,randonly selected as training point or test point
phenyl carbonochloridate,342.15,1,C1=CC=C(C=C1)OC(=O)Cl,pubchem,0,0,0,0,randonly selected as training point or test point
"S-propyl N,N-dipropylcarbamothioate",395.15,1,CCCN(CCC)C(=O)SCCC,pubchem,0,0,0,0,randonly selected as training point or test point