compound,flashpoint,pure substance,smiles,source,is_silicon,is_metallic,is_tin,is_acid,data type
trimethyl(phenoxy)silane,315.906,1,C[Si](C)(C)Oc1ccccc1,le15,1,1,0,0,randonly selected as training point or test point
dodec-1-yne,352.55,1,C#CCCCCCCCCCC,le15,0,0,0,0,randonly selected as training point or test point
"dodeca-1,11-diene",342.45,1,C=CCCCCCCCCC=C,le15,0,0,0,0,randonly selected as training point or test point
cyclohexylcyclohexane,365.35,1,C1CCC(C2CCCCC2)CC1,le15,0,0,0,0,randonly selected as training point or test point
(E)-3-phenylprop-2-enoyl chloride,385.65,1,O=C(Cl)/C=C/c1ccccc1,le15,0,0,0,0,randonly selected as training point or test point
"Benzimidazole, 5-chloro-2-methyl- (8CI)",485.35,1,Cc1nc2ccc(Cl)cc2[nH]1,le15,0,0,0,0,randonly selected as training point or test point
2-iodoacetonitrile,359.25,1,N#CCI,le15,0,0,0,0,randonly selected as training point or test point
"Butyric acid, 2-bromo- (8CI)",357.95,1,CCC(Br)C(=O)O,le15,0,0,0,1,randonly selected as training point or test point
2-bromoethyl acetate,344.25,1,CC(=O)OCCBr,le15,0,0,0,0,randonly selected as training point or test point
"Butanoic acid, 4-bromo-",384.45,1,O=C(O)CCCBr,le15,0,0,0,1,randonly selected as training point or test point
"Propionic acid, 3-bromo-, methyl ester (8CI)",348.15,1,COC(=O)CCBr,le15,0,0,0,1,randonly selected as training point or test point
"Acetic acid, 2-bromo-, ethyl ester",320.95,1,CCOC(=O)CBr,le15,0,0,0,1,randonly selected as training point or test point
"3-Bromo-2,2-dimethyl-1-propanol",348.75,1,CC(C)(CO)CBr,le15,0,0,0,0,randonly selected as training point or test point
"Benzoic acid, 4-nitro-",439.65,1,O=C(O)c1ccc([N+](=O)[O-])cc1,le15,0,0,0,1,randonly selected as training point or test point
"Benzoic acid, 3-nitro-",430.65,1,O=C(O)c1cccc([N+](=O)[O-])c1,le15,0,0,0,1,randonly selected as training point or test point
"2,6-Pyridinedicarboxylic acid",507.35,1,O=C(O)c1cccc(C(=O)O)n1,le15,0,0,0,1,randonly selected as training point or test point
"Benzoic acid, 2-nitro-",430.65,1,O=C(O)c1ccccc1[N+](=O)[O-],le15,0,0,0,1,randonly selected as training point or test point
4-Hydroxy-3-nitrobenzaldehyde,397.45,1,O=Cc1ccc(O)c([N+](=O)[O-])c1,le15,0,0,0,0,randonly selected as training point or test point
"Benzaldehyde, 2-hydroxy-3-nitro-",372.35,1,O=Cc1cccc([N+](=O)[O-])c1O,le15,0,0,0,0,randonly selected as training point or test point
"Salicylaldehyde, 5-nitro- (6CI,7CI,8CI)",410.45,1,O=Cc1cc([N+](=O)[O-])ccc1O,le15,0,0,0,0,randonly selected as training point or test point
"2,5-Pyridinedicarboxylic acid",493.65,1,O=C(O)c1ccc(C(=O)O)nc1,le15,0,0,0,1,randonly selected as training point or test point
5-Nitrofuran-2-acrylaldehyde,414.85,1,O=CC=Cc1ccc([N+](=O)[O-])o1,le15,0,0,0,0,randonly selected as training point or test point
"Phenethyl alcohol, p-nitro-",417.65,1,O=[N+]([O-])c1ccc(CCO)cc1,le15,0,0,0,0,randonly selected as training point or test point
"Phenetole, m-nitro- (8CI)",401.25,1,CCOc1cccc([N+](=O)[O-])c1,le15,0,0,0,0,randonly selected as training point or test point
4-methoxy-1-methyl-2-nitrobenzene,400.35,1,COc1ccc(C)c([N+](=O)[O-])c1,le15,0,0,0,0,randonly selected as training point or test point
9H-Carbazole,433.15,1,c1ccc2c(c1)[nH]c1ccccc12,le15,0,0,0,0,randonly selected as training point or test point
"6H-Purine-6-thione, 2-amino-1,7-dihydro-",562.85,1,Nc1nc2nc[nH]c2c(=S)[nH]1,le15,0,0,0,0,randonly selected as training point or test point
2-naphthalen-2-ylacetonitrile,453.45,1,N#CCc1ccc2ccccc2c1,le15,0,0,0,0,randonly selected as training point or test point
"Cyclohexanol, 1-ethynyl-, carbamate",404.15,1,C#CC1(OC(N)=O)CCCCC1,le15,0,0,0,0,randonly selected as training point or test point
"Benzenemethanol, 3-hydroxy-alpha-((methylamino)methyl)-, (R)- (9CI)",436.55,1,CNC[C@H](O)c1cccc(O)c1,le15,0,0,0,0,randonly selected as training point or test point
"2-Pyrrolidinone, 1-cyclohexyl-",418.15,1,O=C1CCCN1C1CCCCC1,le15,0,0,0,0,randonly selected as training point or test point
"1H-Benzimidazol-2-amine, 5-chloro-",470.45,1,Nc1nc2cc(Cl)ccc2[nH]1,le15,0,0,0,0,randonly selected as training point or test point
3iodo1propene,291.0,1,C=CCI,le15,0,0,0,0,randonly selected as training point or test point
2-bromo-2-nitropropane,334.25,1,CC(C)(Br)[N+](=O)[O-],le15,0,0,0,0,randonly selected as training point or test point
"2-Propanol, 1,1,1,3,3,3-hexafluoro-",277.55,1,OC(C(F)(F)F)C(F)(F)F,le15,0,0,0,0,randonly selected as training point or test point
"Benzene, pentafluoro-",287.05,1,Fc1cc(F)c(F)c(F)c1F,le15,0,0,0,0,randonly selected as training point or test point
"Benzeneacetic acid, 3,4-dihydroxy- (9CI)",494.15,1,O=C(O)Cc1ccc(O)c(O)c1,le15,0,0,0,1,randonly selected as training point or test point
"Benzoic acid, 4-hydroxy-3-methoxy-",422.55,1,COc1cc(C(=O)O)ccc1O,le15,0,0,0,1,randonly selected as training point or test point
"2H-Pyran-2,4(3H)-dione, 3-acetyl-6-methyl-",423.75,1,CC(=O)C1C(=O)C=C(C)OC1=O,le15,0,0,0,0,randonly selected as training point or test point
"Benzoic acid, 3,5-dihydroxy-, methyl ester",420.75,1,COC(=O)c1cc(O)cc(O)c1,le15,0,0,0,1,randonly selected as training point or test point
"Benzoic acid, 2,4-dihydroxy-, methyl ester",421.95,1,COC(=O)c1ccc(O)cc1O,le15,0,0,0,1,randonly selected as training point or test point
"Benzenamine, 4-methoxy-2-nitro-",431.55,1,COc1ccc(N)c([N+](=O)[O-])c1,le15,0,0,0,0,randonly selected as training point or test point
"Benzenamine, 2-methoxy-4-nitro-",447.15,1,COc1cc([N+](=O)[O-])ccc1N,le15,0,0,0,0,randonly selected as training point or test point
"Benzenamine, 2-methoxy-5-nitro-",439.75,1,COc1ccc([N+](=O)[O-])cc1N,le15,0,0,0,0,randonly selected as training point or test point
ethyl 4-fluorobenzoate,354.15,1,CCOC(=O)c1ccc(F)cc1,le15,0,0,0,0,randonly selected as training point or test point
"6-Hydroxy-1,3-benzoxathiol-2-one",455.45,1,O=c1oc2cc(O)ccc2s1,le15,0,0,0,0,randonly selected as training point or test point
"Acetic acid, fluoro-, phenylhydrazone (8CI)",362.75,1,OC(CF)=NNc1ccccc1,le15,0,0,0,1,randonly selected as training point or test point
Dibenzofuran,403.15,1,c1ccc2c(c1)oc1ccccc12,le15,0,0,0,0,randonly selected as training point or test point
"(3,4-dimethoxyphenyl)methanol",394.85,1,COc1ccc(CO)cc1OC,le15,0,0,0,0,randonly selected as training point or test point
"9H-Pyrido(3,4-b)indole",455.25,1,c1ccc2c(c1)[nH]c1cnccc12,le15,0,0,0,0,randonly selected as training point or test point
"3-phenoxypropane-1,2-diol",429.55,1,OCC(O)COc1ccccc1,le15,0,0,0,0,randonly selected as training point or test point
butyl furan-2-carboxylate,367.05,1,CCCCOC(=O)c1ccco1,le15,0,0,0,0,randonly selected as training point or test point
"1,3,5-trimethoxybenzene",358.75,1,COc1cc(OC)cc(OC)c1,le15,0,0,0,0,randonly selected as training point or test point
"1H-Pyrrolo(3,2-h)quinoline",454.05,1,c1cnc2c(c1)ccc1cc[nH]c12,le15,0,0,0,0,randonly selected as training point or test point
"1,2,3-trimethoxybenzene",343.55,1,COc1cccc(OC)c1OC,le15,0,0,0,0,randonly selected as training point or test point
"Isocyanic acid, hexamethylene ester (8CI)",413.15,1,O=C=NCCCCCCN=C=O,le15,0,0,0,1,randonly selected as training point or test point
"Phosphonothioic acid, methyl-, O,S-diethyl ester",352.75,1,CCOP(C)(=O)SCC,le15,0,0,0,1,randonly selected as training point or test point
"Phosphonothioic acid, ethyl-, O-ethyl S-methyl ester",352.75,1,CCOP(=O)(CC)SC,le15,0,0,0,1,randonly selected as training point or test point
Phenyl vinyl sulphone,451.75,1,C=CS(=O)(=O)c1ccccc1,le15,0,0,0,0,randonly selected as training point or test point
"Benzene, 1,1'-methylenebis-",378.05,1,c1ccc(Cc2ccccc2)cc1,le15,0,0,0,0,randonly selected as training point or test point
1-methyl-2-phenylbenzene,380.15,1,Cc1ccccc1-c1ccccc1,le15,0,0,0,0,randonly selected as training point or test point
1-methyl-3-phenylbenzene,386.95,1,Cc1cccc(-c2ccccc2)c1,le15,0,0,0,0,randonly selected as training point or test point
1-prop-2-enylnaphthalene,392.65,1,C=CCc1cccc2ccccc12,le15,0,0,0,0,randonly selected as training point or test point
"1,1'-Biphenyl, 4-methyl-",383.15,1,Cc1ccc(-c2ccccc2)cc1,le15,0,0,0,0,randonly selected as training point or test point
Diphenylmethane,400.0,1,c1ccc(Cc2ccccc2)cc1,le15,0,0,0,0,randonly selected as training point or test point
"7-Oxabicyclo(4.1.0)heptane, 1-methyl-4-(2-methyloxiranyl)-",373.55,1,CC1(C2CCC3(C)OC3C2)CO1,le15,0,0,0,0,randonly selected as training point or test point
"2-Nonynoic acid, methyl ester",373.75,1,CCCCCCC#CC(=O)OC,le15,0,0,0,1,randonly selected as training point or test point
"2,6-Octadienoic acid, 3,7-dimethyl-",474.25,1,CC(C)=CCCC(C)=CC(=O)O,le15,0,0,0,1,randonly selected as training point or test point
"2,3-Dioxabicyclo(2.2.2)oct-5-ene, 1-methyl-4-(1-methylethyl)- (9CI)",329.05,1,CC(C)C12C=CC(C)(CC1)OO2,le15,0,0,0,0,randonly selected as training point or test point
"2,7-Octadien-1-ol, acetate",360.85,1,C=CCCCC=CCOC(C)=O,le15,0,0,0,0,randonly selected as training point or test point
cyclohexyl 2-methylprop-2-enoate,355.15,1,C=C(C)C(=O)OC1CCCCC1,le15,0,0,0,0,randonly selected as training point or test point
"Phenol, 3,5-dimethyl-4-(methylthio)-",403.95,1,CSc1c(C)cc(O)cc1C,le15,0,0,0,0,randonly selected as training point or test point
10-Undecen-1-al,349.15,1,C=CCCCCCCCCC=O,le15,0,0,0,0,randonly selected as training point or test point
"Hexane, 1-cyclohexyl- (8CI)",353.35,1,CCCCCCC1CCCCC1,le15,0,0,0,0,randonly selected as training point or test point
"3-Heptene, 2,2,4,6,6-pentamethyl-",320.25,1,CC(=CC(C)(C)C)CC(C)(C)C,le15,0,0,0,0,randonly selected as training point or test point
Cyclododecane,360.75,1,C1CCCCCCCCCCC1,le15,0,0,0,0,randonly selected as training point or test point
1dodecene,350.0,1,C=CCCCCCCCCCC,le15,0,0,0,0,randonly selected as training point or test point
"2-Benzoxazolamine, 5-chloro- (9CI)",418.55,1,Nc1nc2cc(Cl)ccc2o1,le15,0,0,0,0,randonly selected as training point or test point
3-Phenylpropionyl chloride,381.15,1,O=C(Cl)CCc1ccccc1,le15,0,0,0,0,randonly selected as training point or test point
2-(4-Chlorophenyl)-2-methyloxirane,370.05,1,CC1(c2ccc(Cl)cc2)CO1,le15,0,0,0,0,randonly selected as training point or test point
(1-chloro-2-methylpropan-2-yl)benzene,365.35,1,CC(C)(CCl)c1ccccc1,le15,0,0,0,0,randonly selected as training point or test point
1-tert-butyl-4-chlorobenzene,358.15,1,CC(C)(C)c1ccc(Cl)cc1,le15,0,0,0,0,randonly selected as training point or test point
2-chloro-1-methyl-4-propan-2-ylbenzene,358.35,1,Cc1ccc(C(C)C)cc1Cl,le15,0,0,0,0,randonly selected as training point or test point
"2-Butenoic acid, 2,3-dichloro-4-oxo-, (Z)- (9CI)",459.15,1,O=C/C(Cl)=C(/Cl)C(=O)O,le15,0,0,0,1,randonly selected as training point or test point
"3,4-Dichloro-5-hydroxyfuran-2(5H)-one",373.15,1,O=C1OC(O)C(Cl)=C1Cl,le15,0,0,0,0,randonly selected as training point or test point
"Glutaryl chloride (7CI,8CI)",379.85,1,O=C(Cl)CCCC(=O)Cl,le15,0,0,0,0,randonly selected as training point or test point
"2-bromo-1,1-dimethoxyethane",327.05,1,COC(CBr)OC,le15,0,0,0,0,randonly selected as training point or test point
"Glycine, N-(phosphonomethyl)-",508.65,1,O=C(O)CNCP(=O)(O)O,le15,0,0,0,0,randonly selected as training point or test point
"1,1-dichloroheptane",339.15,1,CCCCCCC(Cl)Cl,le15,0,0,0,0,randonly selected as training point or test point
1-isocyanatonaphthalene,408.15,1,O=C=Nc1cccc2ccccc12,le15,0,0,0,0,randonly selected as training point or test point
"1,2,4-Benzenetriol, 5-(2-aminoethyl)-",472.45,1,NCCc1cc(O)c(O)cc1O,le15,0,0,0,0,randonly selected as training point or test point
"Pyridine, 2-(phenylmethyl)-",398.15,1,c1ccc(Cc2ccccn2)cc1,le15,0,0,0,0,randonly selected as training point or test point
"Benzenamine, N-phenyl-",425.95,1,c1ccc(Nc2ccccc2)cc1,le15,0,0,0,0,randonly selected as training point or test point
3-Benzylpyridine,391.75,1,c1ccc(Cc2cccnc2)cc1,le15,0,0,0,0,randonly selected as training point or test point
"(1,1'-Biphenyl)-3-amine (9CI)",450.15,1,Nc1cccc(-c2ccccc2)c1,le15,0,0,0,0,randonly selected as training point or test point
ethyl 2-cyano-2-ethylbutanoate,363.35,1,CCOC(=O)C(C#N)(CC)CC,le15,0,0,0,0,randonly selected as training point or test point
"[(1R,9aR)-2,3,4,6,7,8,9,9a-octahydro-1H-quinolizin-1-yl]methanol",372.25,1,OC[C@@H]1CCCN2CCCC[C@H]12,le15,0,0,0,0,randonly selected as training point or test point
"Morpholine, 4-cyclohexyl-",342.75,1,C1CCC(N2CCOCC2)CC1,le15,0,0,0,0,randonly selected as training point or test point
"2(3H)-Benzoxazolone, 5-chloro-",430.65,1,O=c1[nH]c2cc(Cl)ccc2o1,le15,0,0,0,0,randonly selected as training point or test point
N-methyl-N-phenylcarbamoyl chloride,396.25,1,CN(C(=O)Cl)c1ccccc1,le15,0,0,0,0,randonly selected as training point or test point
1-chloro-4-isothiocyanatobenzene,378.25,1,S=C=Nc1ccc(Cl)cc1,le15,0,0,0,0,randonly selected as training point or test point
1-chloro-3-isothiocyanatobenzene,390.55,1,S=C=Nc1cccc(Cl)c1,le15,0,0,0,0,randonly selected as training point or test point
"2-chloro-1,3-benzothiazole",376.95,1,Clc1nc2ccccc2s1,le15,0,0,0,0,randonly selected as training point or test point
acetyl iodide,290.75,1,CC(=O)I,le15,0,0,0,0,randonly selected as training point or test point
"Propane, 2-iodo-",315.15,1,CC(C)I,le15,0,0,0,0,randonly selected as training point or test point
"Propane, 1-iodo-",307.15,1,CCCI,le15,0,0,0,0,randonly selected as training point or test point
"Benzoic acid, 3,4,5-trihydroxy-",544.15,1,O=C(O)c1cc(O)c(O)c(O)c1,le15,0,0,0,1,randonly selected as training point or test point
"2,5-Hexadienoic acid, 3-methoxy-5-methyl-4-oxo-",386.65,1,C=C(C)C(=O)C(=CC(=O)O)OC,le15,0,0,0,1,randonly selected as training point or test point
"(1,1'-Biphenyl)-2-ol",396.15,1,Oc1ccccc1-c1ccccc1,le15,0,0,0,0,randonly selected as training point or test point
"(1,1'-Biphenyl)-4-ol",420.35,1,Oc1ccc(-c2ccccc2)cc1,le15,0,0,0,0,randonly selected as training point or test point
"Ethanone, 1-(2-naphthalenyl)-",441.15,1,CC(=O)c1ccc2ccccc2c1,le15,0,0,0,0,randonly selected as training point or test point
"Methacrylic acid, tetrahydrofurfuryl ester (8CI)",364.15,1,C=C(C)C(=O)OCC1CCCO1,le15,0,0,0,1,randonly selected as training point or test point
2-(diethoxymethyl)furan,337.15,1,CCOC(OCC)c1ccco1,le15,0,0,0,0,randonly selected as training point or test point
Cyclo(L-leucylglycyl),480.55,1,CC(C)C[C@@H]1NC(=O)CNC1=O,le15,0,0,0,0,randonly selected as training point or test point
(Ethylsulphonyl)benzene,448.25,1,CCS(=O)(=O)c1ccccc1,le15,0,0,0,0,randonly selected as training point or test point
"4(1H)-Pyrimidinone, 2,3-dihydro-6-propyl-2-thioxo-",441.75,1,CCCc1cc(=O)[nH]c(=S)[nH]1,le15,0,0,0,0,randonly selected as training point or test point
1-propylnaphthalene,392.05,1,CCCc1cccc2ccccc12,le15,0,0,0,0,randonly selected as training point or test point
"Naphthalene, 2-(1-methylethyl)-",382.85,1,CC(C)c1ccc2ccccc2c1,le15,0,0,0,0,randonly selected as training point or test point
"Naphthalene, 1,6,7-trimethyl- (8CI)(9CI)",400.95,1,Cc1cc2cccc(C)c2cc1C,le15,0,0,0,0,randonly selected as training point or test point
"Hexanoic acid, 2-ethyl-, ethenyl ester",338.15,1,C=COC(=O)C(CC)CCCC,le15,0,0,0,1,randonly selected as training point or test point
"Methacrylic acid, hexyl ester (8CI)",345.25,1,C=C(C)C(=O)OCCCCCC,le15,0,0,0,1,randonly selected as training point or test point
"Heptanoic acid, 2-propenyl ester",355.35,1,C=CCOC(=O)CCCCCC,le15,0,0,0,1,randonly selected as training point or test point
"6-Octenoic acid, 3,7-dimethyl-",436.35,1,CC(C)=CCCC(C)CC(=O)O,le15,0,0,0,1,randonly selected as training point or test point
"2H-Pyran-2-one, tetrahydro-6-pentyl-",379.25,1,CCCCCC1CCCC(=O)O1,le15,0,0,0,0,randonly selected as training point or test point
"2(3H)-Furanone, 5-hexyldihydro-",419.15,1,CCCCCCC1CCC(=O)O1,le15,0,0,0,0,randonly selected as training point or test point
cyclohexyl 2-methylpropanoate,348.05,1,CC(C)C(=O)OC1CCCCC1,le15,0,0,0,0,randonly selected as training point or test point
"Butanoic acid, cyclohexyl ester",351.15,1,CCCC(=O)OC1CCCCC1,le15,0,0,0,1,randonly selected as training point or test point
"1-Octen-3-ol, acetate",347.05,1,C=CC(CCCCC)OC(C)=O,le15,0,0,0,0,randonly selected as training point or test point
"2-Propenoic acid, heptyl ester",341.05,1,C=CC(=O)OCCCCCCC,le15,0,0,0,1,randonly selected as training point or test point
10-Undecen-1-ol,366.45,1,C=CCCCCCCCCCO,le15,0,0,0,0,randonly selected as training point or test point
1-Undecanal,369.25,1,CCCCCCCCCCC=O,le15,0,0,0,0,randonly selected as training point or test point
undecan-3-one,346.35,1,CCCCCCCCC(=O)CC,le15,0,0,0,0,randonly selected as training point or test point
undecan-5-one,345.95,1,CCCCCCC(=O)CCCC,le15,0,0,0,0,randonly selected as training point or test point
"Furan, tetrahydro-2-heptyl-",347.05,1,CCCCCCCC1CCCO1,le15,0,0,0,0,randonly selected as training point or test point
2undecanone,362.0,1,CCCCCCCCCC(C)=O,le15,0,0,0,0,randonly selected as training point or test point
6undecanone,361.0,1,CCCCCC(=O)CCCCC,le15,0,0,0,0,randonly selected as training point or test point
"Cyclohexanemethanamine, 4-amino-alpha,alpha,4-trimethyl-",366.45,1,CC1(N)CCC(C(C)(C)N)CC1,le15,0,0,0,0,randonly selected as training point or test point
"Cyclohexanemethanamine, 5-amino-1,3,3-trimethyl-",371.85,1,CC1(C)CC(N)CC(C)(CN)C1,le15,0,0,0,0,randonly selected as training point or test point
3-methylundecane,334.95,1,CCCCCCCCC(C)CC,le15,0,0,0,0,randonly selected as training point or test point
"Heptane, 2,2,4,6,6-pentamethyl-",331.55,1,CC(CC(C)(C)C)CC(C)(C)C,le15,0,0,0,0,randonly selected as training point or test point
trimethyl(2-trimethylsilylethynyl)silane,290.25,1,C[Si](C)(C)C#C[Si](C)(C)C,le15,1,1,0,0,randonly selected as training point or test point
4-methoxybenzoyl chloride,360.95,1,COc1ccc(C(=O)Cl)cc1,le15,0,0,0,0,randonly selected as training point or test point
"Benzoic acid, p-chloro-, methyl ester (8CI)",379.85,1,COC(=O)c1ccc(Cl)cc1,le15,0,0,0,1,randonly selected as training point or test point
"Benzeneacetic acid, 2-chloro- (9CI)",404.85,1,O=C(O)Cc1ccccc1Cl,le15,0,0,0,1,randonly selected as training point or test point
methyl 3-chlorobenzoate,377.15,1,COC(=O)c1cccc(Cl)c1,le15,0,0,0,0,randonly selected as training point or test point
"Acetophenone, 2-chloro-4'-hydroxy- (6CI,7CI)",430.85,1,O=C(CCl)c1ccc(O)cc1,le15,0,0,0,0,randonly selected as training point or test point
"Carbonochloridic acid, phenylmethyl ester",280.15,1,O=C(Cl)OCc1ccccc1,le15,0,0,0,1,randonly selected as training point or test point
"Acetic acid, (p-chlorophenyl)-",404.85,1,O=C(O)Cc1ccc(Cl)cc1,le15,0,0,0,1,randonly selected as training point or test point
"Urea, (p-chlorophenyl)- (8CI)",391.25,1,NC(=O)Nc1ccc(Cl)cc1,le15,0,0,0,0,randonly selected as training point or test point
3-chloropropoxybenzene,448.35,1,ClCCCOc1ccccc1,le15,0,0,0,0,randonly selected as training point or test point
(2-chloroacetyl) 2-chloroacetate,355.95,1,O=C(CCl)OC(=O)CCl,le15,0,0,0,0,randonly selected as training point or test point
"propan-2-yl 2,2-dichloroacetate",333.25,1,CC(C)OC(=O)C(Cl)Cl,le15,0,0,0,0,randonly selected as training point or test point
"Benzene, 1-bromo-2-methyl-",351.15,1,Cc1ccccc1Br,le15,0,0,0,0,randonly selected as training point or test point
"Benzene, (bromomethyl)-",359.81699999999995,1,BrCc1ccccc1,le15,0,0,0,0,randonly selected as training point or test point
"Benzene, 1-bromo-3-methyl-",333.15,1,Cc1cccc(Br)c1,le15,0,0,0,0,randonly selected as training point or test point
Benzylbromide,352.0,1,BrCc1ccccc1,le15,0,0,0,0,randonly selected as training point or test point
"Ether, bis(2-chloro-1-methylethyl)",309.55,1,CC(CCl)OC(C)CCl,le15,0,0,0,0,randonly selected as training point or test point
"alpha,alpha,alpha-Trifluoro-m-toluonitrile",345.35,1,N#Cc1cccc(C(F)(F)F)c1,le15,0,0,0,0,randonly selected as training point or test point
"alpha,alpha,alpha-Trifluoro-2-toluonitrile",363.15,1,N#Cc1ccccc1C(F)(F)F,le15,0,0,0,0,randonly selected as training point or test point
"2-Furancarboximidamide, N-hydroxy-5-nitro-",465.35,1,N=C(NO)c1ccc([N+](=O)[O-])o1,le15,0,0,0,0,randonly selected as training point or test point
4-Fluoro-2-(methyloxy)-1-nitrobenzene,375.65,1,COc1cc(F)ccc1[N+](=O)[O-],le15,0,0,0,0,randonly selected as training point or test point