compound,flashpoint,pure substance,smiles,source,is_silicon,is_metallic,is_tin,is_acid,data type
Tetraethylsilane,299.0,1,C(C)[Si](CC)(CC)CC,pan13,1,1,0,0,randonly selected as training point or test point
n-Octylsilane,309.0,1,C(CCCCCCC)[SiH3],pan13,1,1,0,0,randonly selected as training point or test point
Aminoethylaminopropyltrimethoxysilane,369.0,1,NCCNCCC[Si](OC)(OC)OC,pan13,1,1,0,0,randonly selected as training point or test point
Octamethyltrisiloxane,303.0,1,C[Si](O[Si](O[Si](C)(C)C)(C)C)(C)C,pan13,1,1,0,0,randonly selected as training point or test point
Octamethylcyclotetrasiloxane,330.0,1,C[Si]1(O[Si](O[Si](O[Si](O1)(C)C)(C)C)(C)C)C,pan13,1,1,0,0,randonly selected as training point or test point
Octamethylcyclotetrasilazane,339.0,1,C[Si]1(N[Si](N[Si](N[Si](N1)(C)C)(C)C)(C)C)C,pan13,1,1,0,0,randonly selected as training point or test point
Tetrakisdimethylsiloxysilane,340.0,1,C[SiH](O[Si](O[SiH](C)C)(O[SiH](C)C)O[SiH](C)C)C,pan13,1,1,0,0,randonly selected as training point or test point
p-Chlorophenyltrimethylsilane,322.0,1,ClC1=CC=C(C=C1)[Si](C)(C)C,pan13,1,1,0,0,randonly selected as training point or test point
Methylphenyldimethoxysilane,349.0,1,C[Si](OC)(OC)C1=CC=CC=C1,pan13,1,1,0,0,randonly selected as training point or test point
Phenyltrimethoxysilane,358.0,1,C1(=CC=CC=C1)[Si](OC)(OC)OC,pan13,1,1,0,0,randonly selected as training point or test point
Trimethylphenylsilane,313.0,1,C[Si](C1=CC=CC=C1)(C)C,pan13,1,1,0,0,randonly selected as training point or test point
2-Cyanoethyltriethoxysilane,359.0,1,C(#N)CC[Si](OCC)(OCC)OCC,pan13,1,1,0,0,randonly selected as training point or test point
Cyclohexylmethyldimethoxysilane,343.0,1,C1(CCCCC1)C[SiH](OC)OC,pan13,1,1,0,0,randonly selected as training point or test point
3-Glycidoxypropyltrimethoxysilane,383.0,1,C(C1CO1)OCCC[Si](OC)(OC)OC,pan13,1,1,0,0,randonly selected as training point or test point
Di-t-butylmethylchlorosilane,342.0,1,C(C)(C)(C)[Si](Cl)(C)C(C)(C)C,pan13,1,1,0,0,randonly selected as training point or test point
Hexyltrimethoxysilane,335.0,1,C(CCCCC)[Si](OC)(OC)OC,pan13,1,1,0,0,randonly selected as training point or test point
Triisopropylsilane,310.0,1,C(C)(C)[SiH](C(C)C)C(C)C,pan13,1,1,0,0,randonly selected as training point or test point
Tri-n-propylsilane,316.0,1,C(CC)[SiH](CCC)CCC,pan13,1,1,0,0,randonly selected as training point or test point
(Diisopropylamino)trimethylsilane,301.0,1,C(C)(C)N(C(C)C)[Si](C)(C)C,pan13,1,1,0,0,randonly selected as training point or test point
1-Chlorononamethyltetrasiloxane,347.0,1,Cl[Si](O[Si](O[Si](O[Si](C)(C)C)(C)C)(C)C)(C)C,pan13,1,1,0,0,randonly selected as training point or test point
Propyltris(dimethylsiloxy)silane,323.0,1,C(CC)[Si](O[SiH](C)C)(O[SiH](C)C)O[SiH](C)C,pan13,1,1,0,0,randonly selected as training point or test point
Benzyltrimethylsilane,335.0,1,C(C1=CC=CC=C1)[Si](C)(C)C,pan13,1,1,0,0,randonly selected as training point or test point
3-Methacryloxypropyltrimethoxysilane,365.0,1,C(C(=C)C)(=O)OCCC[Si](OC)(OC)OC,pan13,1,1,0,0,randonly selected as training point or test point
n-Octyldimethylchlorosilane,370.0,1,C(CCCCCCC)[Si](Cl)(C)C,pan13,1,1,0,0,randonly selected as training point or test point
Bis(diethylamino)dimethylsilane,308.0,1,C(C)N(CC)[Si](C)(C)N(CC)CC,pan13,1,1,0,0,randonly selected as training point or test point
Decamethyltetrasiloxane,335.0,1,C[Si](O[Si](O[Si](O[Si](C)(C)C)(C)C)(C)C)(C)C,pan13,1,1,0,0,randonly selected as training point or test point
Decamethylcyclopentasiloxane,350.0,1,C[Si]1(O[Si](O[Si](O[Si](O[Si](O1)(C)C)(C)C)(C)C)(C)C)C,pan13,1,1,0,0,randonly selected as training point or test point
"2-(3,4-epoxycyclohexyl)ethyltrimethoxysilane",419.0,1,C1(CC2C(CC1)O2)CC[Si](OC)(OC)OC,pan13,1,1,0,0,randonly selected as training point or test point
n-Decylmethyldichlorosilane,393.0,1,C(CCCCCCCCC)[Si](Cl)(Cl)C,pan13,1,1,0,0,randonly selected as training point or test point
Vinyltriethylsilane,318.0,1,C(=C)[Si](CC)(CC)CC,pan13,1,1,0,0,randonly selected as training point or test point
Phenyltriethoxysilane,393.0,1,C1(=CC=CC=C1)[Si](OCC)(OCC)OCC,pan13,1,1,0,0,randonly selected as training point or test point
Diphenylsilane,371.0,1,C1(=CC=CC=C1)[SiH2]C1=CC=CC=C1,pan13,1,1,0,0,randonly selected as training point or test point
Tetramethyltetravinylcyclotetrasilane,385.0,1,C[Si]1([Si]([Si]([Si]1(C=C)C)(C=C)C)(C=C)C)C=C,pan13,1,1,0,0,randonly selected as training point or test point
n-Dodecyltrichlorosilane,435.0,1,C(CCCCCCCCCCC)[Si](Cl)(Cl)Cl,pan13,1,1,0,0,randonly selected as training point or test point
Hexaethyldisiloxane,349.0,1,C(C)[Si](O[Si](CC)(CC)CC)(CC)CC,pan13,1,1,0,0,randonly selected as training point or test point
Dodecamethylpentasiloxane,352.0,1,C[Si](O[Si](O[Si](O[Si](O[Si](C)(C)C)(C)C)(C)C)(C)C)(C)C,pan13,1,1,0,0,randonly selected as training point or test point
Dodecamethylcyclohexasiloxane,366.0,1,C[Si]1(O[Si](O[Si](O[Si](O[Si](O[Si](O1)(C)C)(C)C)(C)C)(C)C)(C)C)C,pan13,1,1,0,0,randonly selected as training point or test point
Methyldiphenylchlorosilane,411.0,1,C[Si](Cl)(C1=CC=CC=C1)C1=CC=CC=C1,pan13,1,1,0,0,randonly selected as training point or test point
n-Dodecylmethyldichlorosilane,416.0,1,C(CCCCCCCCCCC)[Si](Cl)(Cl)C,pan13,1,1,0,0,randonly selected as training point or test point
Diphenyldimethoxysilane,394.0,1,C1(=CC=CC=C1)[Si](OC)(OC)C1=CC=CC=C1,pan13,1,1,0,0,randonly selected as training point or test point
Octyltriethoxysilane,373.0,1,C(CCCCCCC)[Si](OCC)(OCC)OCC,pan13,1,1,0,0,randonly selected as training point or test point
Tetradecamethylhexasiloxane,375.0,1,C[Si](O[Si](O[Si](O[Si](O[Si](O[Si](C)(C)C)(C)C)(C)C)(C)C)(C)C)(C)C,pan13,1,1,0,0,randonly selected as training point or test point
n-Octadecyltrichlorosilane,466.0,1,C(CCCCCCCCCCCCCCCCC)[Si](Cl)(Cl)Cl,pan13,1,1,0,0,randonly selected as training point or test point
Octadecamethyloctasiloxane,417.0,1,C[Si](O[Si](O[Si](O[Si](O[Si](O[Si](O[Si](O[Si](C)(C)C)(C)C)(C)C)(C)C)(C)C)(C)C)(C)C)(C)C,pan13,1,1,0,0,randonly selected as training point or test point
Vinyltrichlorosilane,294.0,1,C(=C)[Si](Cl)(Cl)Cl,pan13,1,1,0,0,randonly selected as training point or test point
Ethylsilane,213.0,1,C(C)[SiH3],pan13,1,1,0,0,randonly selected as training point or test point
n-Propyltrichlorosilane,310.0,1,C(CC)[Si](Cl)(Cl)Cl,pan13,1,1,0,0,randonly selected as training point or test point
Trimethylfluorosilane,238.0,1,C[Si](F)(C)C,pan13,1,1,0,0,randonly selected as training point or test point
Dimethylvinylchlorosilane,268.0,1,CC(=C[SiH2]Cl)C,pan13,1,1,0,0,randonly selected as training point or test point
Trimethylsilylisothiocyanate,308.0,1,C[Si](C)(C)N=C=S,pan13,1,1,0,0,randonly selected as training point or test point
Methoxytrimethylsilane,243.0,1,CO[Si](C)(C)C,pan13,1,1,0,0,randonly selected as training point or test point
Diethylsilane,253.0,1,C(C)[SiH2]CC,pan13,1,1,0,0,randonly selected as training point or test point
Tetraisocyanatosilane,323.0,1,N(=C=O)[Si](N=C=O)(N=C=O)N=C=O,pan13,1,1,0,0,randonly selected as training point or test point
sec-Amyltrichlorosilane,303.0,1,C(C)(CCC)[Si](Cl)(Cl)Cl,pan13,1,1,0,0,randonly selected as training point or test point
Vinyltrimethoxysilane,296.0,1,C(=C)[Si](OC)(OC)OC,pan13,1,1,0,0,randonly selected as training point or test point
Ethoxytrimethylsilane,246.0,1,C(C)O[Si](C)(C)C,pan13,1,1,0,0,randonly selected as training point or test point
Phenyltrichlorosilane,364.0,1,C1(=CC=CC=C1)[Si](Cl)(Cl)Cl,pan13,1,1,0,0,randonly selected as training point or test point
Cyclohexyltrichlorosilane,358.0,1,C1(CCCCC1)[Si](Cl)(Cl)Cl,pan13,1,1,0,0,randonly selected as training point or test point
1-Trimethylsilylpropyne,270.0,1,C[Si](C#CC)(C)C,pan13,1,1,0,0,randonly selected as training point or test point
Hexyldichlorosilane,337.0,1,C(CCCCC)[SiH](Cl)Cl,pan13,1,1,0,0,randonly selected as training point or test point
Allyltrimethoxysilane,319.0,1,C(C=C)[Si](OC)(OC)OC,pan13,1,1,0,0,randonly selected as training point or test point
3-Chloropropylmethyldimethoxysilane,318.0,1,ClCCC[Si](OC)(OC)C,pan13,1,1,0,0,randonly selected as training point or test point
n-Propyltrimethoxysilane,298.0,1,C(CC)[Si](OC)(OC)OC,pan13,1,1,0,0,randonly selected as training point or test point
Hexamethyldisiloxane,270.0,1,C[Si](O[Si](C)(C)C)(C)C,pan13,1,1,0,0,randonly selected as training point or test point
Hexamethyldisilazane,281.0,1,C[Si](N[Si](C)(C)C)(C)C,pan13,1,1,0,0,randonly selected as training point or test point
Methyltriacetoxysilane,358.0,1,C[Si](OC(C)=O)(OC(C)=O)OC(C)=O,pan13,1,1,0,0,randonly selected as training point or test point
n-Heptyltrichlorosilane,337.0,1,C(CCCCCC)[Si](Cl)(Cl)Cl,pan13,1,1,0,0,randonly selected as training point or test point
(1-Methoxy-2-propoxy)trimethylsilane,293.0,1,COCC(C)O[Si](C)(C)C,pan13,1,1,0,0,randonly selected as training point or test point
Heptamethyldisilazane,300.0,1,C[Si](N([Si](C)(C)C)C)(C)C,pan13,1,1,0,0,randonly selected as training point or test point
Vinyltriacetoxysilane,361.0,1,C(=C)[Si](OC(C)=O)(OC(C)=O)OC(C)=O,pan13,1,1,0,0,randonly selected as training point or test point
(Cyclopentenyloxy)trimethylsilane,311.0,1,C1(=CCCC1)O[Si](C)(C)C,pan13,1,1,0,0,randonly selected as training point or test point
Tetramethyldivinyldisiloxane,292.0,1,C[Si](O[Si](C=C)(C=C)C)(C)C,pan13,1,1,0,0,randonly selected as training point or test point
Diethyldiethoxysilane,316.0,1,C(C)[Si](OCC)(OCC)CC,pan13,1,1,0,0,randonly selected as training point or test point
Tetramethyldiethoxysiloxane,311.0,1,CC(C(O[Si]([O])OCC)(C)C)C,pan13,1,1,0,0,randonly selected as training point or test point
Tri-n-propylchlorosilane,349.0,1,C(CC)[Si](Cl)(CCC)CCC,pan13,1,1,0,0,randonly selected as training point or test point
Tris(trimethylsiloxy)boron,315.0,1,C[Si](OB(O[Si](C)(C)C)O[Si](C)(C)C)(C)C,pan13,1,1,0,0,randonly selected as training point or test point
1-Heptynyltrimethylsilane,315.0,1,C(#CCCCCC)[Si](C)(C)C,pan13,1,1,0,0,randonly selected as training point or test point
Tristrimethylsiloxymethylsilane,336.0,1,C[Si](OC(O[Si](C)(C)C)(O[Si](C)(C)C)[SiH3])(C)C,pan13,1,1,0,0,randonly selected as training point or test point
Diphenyldichlorosilane,415.0,1,C1(=CC=CC=C1)[Si](Cl)(Cl)C1=CC=CC=C1,pan13,1,1,0,0,randonly selected as training point or test point
Tetra-n-propoxysilane,368.0,1,C(CC)O[Si](OCCC)(OCCC)OCCC,pan13,1,1,0,0,randonly selected as training point or test point
Diphenylmethylsilane,393.0,1,C1(=CC=CC=C1)C(C1=CC=CC=C1)[SiH3],pan13,1,1,0,0,randonly selected as training point or test point
Hexadecamethylheptasiloxane,406.0,1,C[Si](O[Si](O[Si](O[Si](O[Si](O[Si](O[Si](C)(C)C)(C)C)(C)C)(C)C)(C)C)(C)C)(C)C,pan13,1,1,0,0,randonly selected as training point or test point
ACETOXYETHYLDIMETHYLCHLOROSILANE,336.15,1,CC(=O)OCC[Si](C)(C)Cl,gelest_silanes,1,1,0,0,randonly selected as training point or test point
ACETOXYETHYLMETHYLDICHLOROSILANE,338.15,1,CC(=O)OCC[Si](C)(Cl)Cl,gelest_silanes,1,1,0,0,randonly selected as training point or test point
ACETOXYETHYLTRICHLOROSILANE,355.15,1,CC(=O)OCC[Si](Cl)(Cl)Cl,gelest_silanes,1,1,0,0,randonly selected as training point or test point
ACETOXYETHYLTRIETHOXYSILANE,372.15,1,CCO[Si](CCOC(C)=O)(OCC)OCC,gelest_silanes,1,1,0,0,randonly selected as training point or test point
ACETOXYMETHYLTRIMETHYLSILANE,293.15,1,CC(=O)OC[Si](C)(C)C,gelest_silanes,1,1,0,0,randonly selected as training point or test point
3-ACETOXYPROPYLMETHYLDICHLOROSILANE,358.15,1,CC(=O)OCCC[Si](C)(Cl)Cl,gelest_silanes,1,1,0,0,randonly selected as training point or test point
3-ACETOXYPROPYLTRIMETHOXYSILANE,366.15,1,CO[Si](CCCOC(C)=O)(OC)OC,gelest_silanes,1,1,0,0,randonly selected as training point or test point
ACETOXYTRIMETHYLSILANE,277.15,1,CC(=O)O[Si](C)(C)C,gelest_silanes,1,1,0,0,randonly selected as training point or test point
ACETYLTRIMETHYLSILANE,281.15,1,CC(=O)[Si](C)(C)C,gelest_silanes,1,1,0,0,randonly selected as training point or test point
ACRYLOXYMETHYLTRIMETHOXYSILANE,335.15,1,C=CC(=O)OC[Si](OC)(OC)OC,gelest_silanes,1,1,0,0,randonly selected as training point or test point
(3-ACRYLOXYPROPYL)DIMETHYLMETHOXYSILANE,358.15,1,C=CC(=O)OCCC[Si](C)(C)OC,gelest_silanes,1,1,0,0,randonly selected as training point or test point
(3-ACRYLOXYPROPYL)TRIMETHOXYSILANE,396.15,1,C=CC(=O)OCCC[Si](OC)(OC)OC,gelest_silanes,1,1,0,0,randonly selected as training point or test point
(3-ACRYLOXYPROPYL)TRIS(TRIMETHYLSILOXY)SILANE,366.15,1,C=CC(=O)OCCC[Si](O[Si](C)(C)C)(O[Si](C)(C)C)O[Si](C)(C)C,gelest_silanes,1,1,0,0,randonly selected as training point or test point
ACRYLOXYTRIMETHYLSILANE,299.15,1,C=CC(=O)O[Si](C)(C)C,gelest_silanes,1,1,0,0,randonly selected as training point or test point
3-(N-ALLYLAMINO)PROPYLTRIMETHOXYSILANE,361.15,1,C=CCNCCC[Si](OC)(OC)OC,gelest_silanes,1,1,0,0,randonly selected as training point or test point
ALLYLAMINOTRIMETHYLSILANE,283.15,1,C=CCN[Si](C)(C)C,gelest_silanes,1,1,0,0,randonly selected as training point or test point
ALLYL(CHLOROMETHYL)DIMETHYLSILANE,300.15,1,C=CC[Si](C)(C)CCl,gelest_silanes,1,1,0,0,randonly selected as training point or test point
ALLYL(3-CHLOROPROPYL)DICHLOROSILANE,349.15,1,C=CC[Si](Cl)(Cl)CCCCl,gelest_silanes,1,1,0,0,randonly selected as training point or test point
ALLYLDICHLOROSILANE,269.15,1,C=CC[SiH](Cl)Cl,gelest_silanes,1,1,0,0,randonly selected as training point or test point
ALLYLDIMETHYL(DIISOPROPYLAMINO)SILANE,335.15,1,C=CC[Si](C)(C)N(C(C)C)C(C)C,gelest_silanes,1,1,0,0,randonly selected as training point or test point
ALLYLDIMETHYLSILANE,253.15,1,C=CC[SiH](C)C,gelest_silanes,1,1,0,0,randonly selected as training point or test point
ALLYL(4-METHOXYPHENYL)DIMETHYLSILANE,375.15,1,C=CC[Si](C)(C)c1ccc(OC)cc1,gelest_silanes,1,1,0,0,randonly selected as training point or test point
ALLYLMETHYLDICHLOROSILANE,300.15,1,C=CCC[SiH](Cl)Cl,gelest_silanes,1,1,0,0,randonly selected as training point or test point
ALLYLOXY-t-BUTYLDIMETHYLSILANE,305.15,1,C=CCO[Si](C)(C)C(C)(C)C,gelest_silanes,1,1,0,0,randonly selected as training point or test point
ALLYLOXYTRIMETHYLSILANE,273.15,1,C=CCO[Si](C)(C)C,gelest_silanes,1,1,0,0,randonly selected as training point or test point
ALLYLPHENYLDICHLOROSILANE,349.15,1,C=CC[Si](Cl)(Cl)c1ccccc1,gelest_silanes,1,1,0,0,randonly selected as training point or test point
ALLYLTRICHLOROSILANE,304.15,1,C=CC[Si](Cl)(Cl)Cl,gelest_silanes,1,1,0,0,randonly selected as training point or test point
ALLYLTRIETHOXYSILANE,320.15,1,C=CC[Si](OCC)(OCC)OCC,gelest_silanes,1,1,0,0,randonly selected as training point or test point
ALLYLTRIISOPROPYLSILANE,349.15,1,C=CC[Si](C(C)C)(C(C)C)C(C)C,gelest_silanes,1,1,0,0,randonly selected as training point or test point
ALLYLTRIMETHOXYSILANE,319.15,1,C=CC[Si](OC)(OC)OC,gelest_silanes,1,1,0,0,randonly selected as training point or test point
ALLYLTRIMETHYLSILANE,280.15,1,C=CC[Si](C)(C)C,gelest_silanes,1,1,0,0,randonly selected as training point or test point
ALLYLTRIS(TRIMETHYLSILOXY)SILANE,340.15,1,C=CC[Si](O[Si](C)(C)C)(O[Si](C)(C)C)O[Si](C)(C)C,gelest_silanes,1,1,0,0,randonly selected as training point or test point
4-AMINOBUTYLTRIETHOXYSILANE,382.15,1,CCO[Si](CCCCN)(OCC)OCC,gelest_silanes,1,1,0,0,randonly selected as training point or test point
N-(2-AMINOETHYL)-3-AMINOPROPYLMETHYLDIMETHOXYSILANE,363.15,1,CO[Si](C)(CCCNCCN)OC,gelest_silanes,1,1,0,0,randonly selected as training point or test point
N-(2-AMINOETHYL)-3-AMINOPROPYLTRIETHOXYSILANE,421.15,1,CCO[Si](CCCNCCN)(OCC)OCC,gelest_silanes,1,1,0,0,randonly selected as training point or test point
N-(2-AMINOETHYL)-3-AMINOPROPYLTRIMETHOXYSILANE,423.15,1,CO[Si](CCCNCCN)(OC)OC,gelest_silanes,1,1,0,0,randonly selected as training point or test point
AMINOMETHYLTRIMETHYLSILANE,282.15,1,C[Si](C)(C)CN,gelest_silanes,1,1,0,0,randonly selected as training point or test point
m-AMINOPHENYLTRIMETHOXYSILANE,453.15,1,CO[Si](OC)(OC)c1cccc(N)c1,gelest_silanes,1,1,0,0,randonly selected as training point or test point
p-AMINOPHENYLTRIMETHOXYSILANE,453.15,1,CO[Si](OC)(OC)c1ccc(N)cc1,gelest_silanes,1,1,0,0,randonly selected as training point or test point
AMINOPHENYLTRIMETHOXYSILANE,453.15,1,CO[Si](OC)(OCN)c1ccccc1,gelest_silanes,1,1,0,0,randonly selected as training point or test point
3-AMINOPROPYLDIMETHYLETHOXYSILANE,346.15,1,CCO[Si](C)(C)CCCN,gelest_silanes,1,1,0,0,randonly selected as training point or test point
3-AMINOPROPYLTRIETHOXYSILANE,377.15,1,CCO[Si](CCCN)(OCC)OCC,gelest_silanes,1,1,0,0,randonly selected as training point or test point
3-AMINOPROPYLTRIMETHOXYSILANE,356.15,1,CO[Si](CCCN)(OC)OC,gelest_silanes,1,1,0,0,randonly selected as training point or test point
3-AMINOPROPYLTRIMETHYLSILANE,332.15,1,C[Si](C)(C)CCCN,gelest_silanes,1,1,0,0,randonly selected as training point or test point
3-AMINOPROPYLTRIS(METHOXYETHOXYETHOXY)SILANE,341.15,1,COCCOCCO[Si](CCCN)(OCCOCCOC)OCCOCCOC,gelest_silanes,1,1,0,0,randonly selected as training point or test point
(AZIDOMETHYL)TRIMETHYLSILANE,279.15,1,C[Si](C)(C)CN=[N+]=[N-],gelest_silanes,1,1,0,0,randonly selected as training point or test point
6-AZIDOSULFONYLHEXYLTRIETHOXYSILANE,387.15,1,CCO[Si](CCCCCCS(=O)(=O)N=[N+]=[N-])(OCC)OCC,gelest_silanes,1,1,0,0,randonly selected as training point or test point
N-BENZYLAMINOMETHYLTRIMETHYLSILANE,389.15,1,C[Si](C)(C)CNCc1ccccc1,gelest_silanes,1,1,0,0,randonly selected as training point or test point
BENZYLDIMETHYLCHLOROSILANE,346.15,1,C[Si](C)(Cl)Cc1ccccc1,gelest_silanes,1,1,0,0,randonly selected as training point or test point
BENZYLDIMETHYLSILANE,338.15,1,C[SiH](C)Cc1ccccc1,gelest_silanes,1,1,0,0,randonly selected as training point or test point
N-BENZYL-N-METHOXYMETHYL-N-(TRIMETHYLSILYLMETHYL)AMINE,339.15,1,COCN(Cc1ccccc1)C[Si](C)(C)C,gelest_silanes,1,1,0,0,randonly selected as training point or test point
ALLYLTRI-n-BUTYLTIN,376.15,1,C=CC[Sn](CCCC)(CCCC)CCCC,gelest_tin,0,1,1,0,randonly selected as training point or test point
BIS[BIS(TRIMETHYLSILYL)AMINO]TIN(II),329.15,1,C[Si](C)(C)N([Sn]N([Si](C)(C)C)[Si](C)(C)C)[Si](C)(C)C,gelest_tin,1,1,1,0,randonly selected as training point or test point
t-BUTYLTRI n-BUTYLTIN,375.15,1,CCCC[Sn](CCCC)(CCCC)C(C)(C)C,gelest_tin,0,1,1,0,randonly selected as training point or test point
CHLOROMETHYLTRIMETHYLTIN,312.15,1,C[Sn](C)(C)CCl,gelest_tin,0,1,1,0,randonly selected as training point or test point
DIALLYLDI-n-BUTYLTIN,374.15,1,C=CC[Sn](CC=C)(CCCC)CCCC,gelest_tin,0,1,1,0,randonly selected as training point or test point
DI-n-BUTYLDIACETOXYTIN,416.15,1,CCCC[Sn](CCCC)(OC(C)=O)OC(C)=O,gelest_tin,0,1,1,0,randonly selected as training point or test point
DI-n-BUTYLDI-n-BUTOXYTIN,389.15,1,CCCCO[Sn](CCCC)(CCCC)OCCCC,gelest_tin,0,1,1,0,randonly selected as training point or test point
DI-n-BUTYLDICHLOROTIN,441.15,1,CCCC[Sn](Cl)(Cl)CCCC,gelest_tin,0,1,1,0,randonly selected as training point or test point
DI-t-BUTYLDICHLOROTIN,386.15,1,CC(C)(C)[Sn](Cl)(Cl)C(C)(C)C,gelest_tin,0,1,1,0,randonly selected as training point or test point
DI-n-BUTYLDIMETHOXYTIN,383.15,1,CCCC[Sn](CCCC)(OC)OC,gelest_tin,0,1,1,0,randonly selected as training point or test point
DIMETHYLAMINOTRI-n-BUTYLTIN,388.15,1,CCCC[Sn](CCCC)(CCCC)N(C)C,gelest_tin,0,1,1,0,randonly selected as training point or test point
DIMETHYLAMINOTRIMETHYLTIN,274.15,1,CN(C)[Sn](C)(C)C,gelest_tin,0,1,1,0,randonly selected as training point or test point
DIOCTYLDICHLOROTIN,477.15,1,CCCCCCCC[Sn](Cl)(Cl)CCCCCCCC,gelest_tin,0,1,1,0,randonly selected as training point or test point
DIOCTYLDILAURYLTIN,471.15,1,CCCCCCCCCCCC[Sn](CCCCCCCC)(CCCCCCCC)CCCCCCCCCCCC,gelest_tin,0,1,1,0,randonly selected as training point or test point
DIVINYLDICHLOROTIN,477.15,1,C=C[Sn](Cl)(Cl)C=C,gelest_tin,0,1,1,0,randonly selected as training point or test point
1-ETHOXYVINYLTRI-n-BUTYLTIN,386.15,1,C=C(OCC)[Sn](CCCC)(CCCC)CCCC,gelest_tin,0,1,1,0,randonly selected as training point or test point
ETHYNYLTRI-n-BUTYLTIN,346.15,1,C#C[Sn](CCCC)(CCCC)CCCC,gelest_tin,0,1,1,0,randonly selected as training point or test point
PHENYLETHYNYLTRI-n-BUTYLTIN,386.15,1,CCCC[Sn](C#Cc1ccccc1)(CCCC)CCCC,gelest_tin,0,1,1,0,randonly selected as training point or test point