compound,flashpoint,pure substance,smiles,source,is_silicon,is_metallic,is_tin,is_acid,data type
1-propylpiperidine,312.95,1,CCCN1CCCCC1,le15,0,0,0,0,randonly selected as training point or test point
4-propylpiperidine,321.55,1,CCCC1CCNCC1,le15,0,0,0,0,randonly selected as training point or test point
"Cyclohexanemethylamine, N-methyl-",314.45,1,CNCC1CCCCC1,le15,0,0,0,0,randonly selected as training point or test point
2-propylpiperidine,321.55,1,CCCC1CCCCN1,le15,0,0,0,0,randonly selected as training point or test point
"Benzenamine, 2-chloro-",371.15,1,Nc1ccccc1Cl,le15,0,0,0,0,randonly selected as training point or test point
"Benzenamine, 3-chloro-",397.05,1,Nc1cccc(Cl)c1,le15,0,0,0,0,randonly selected as training point or test point
6-Chloro-2-methylpyridine,346.15,1,Cc1cccc(Cl)n1,le15,0,0,0,0,randonly selected as training point or test point
"Benzenamine, 4-chloro-",333.85,1,Nc1ccc(Cl)cc1,le15,0,0,0,0,randonly selected as training point or test point
2-chloro-4-methylpyridine,362.75,1,Cc1ccnc(Cl)c1,le15,0,0,0,0,randonly selected as training point or test point
difluoro(methyl)arsane,279.05,1,C[As](F)F,le15,0,1,0,0,randonly selected as training point or test point
"Acetamide, 2,2-dichloro-",377.45,1,NC(=O)C(Cl)Cl,le15,0,0,0,0,randonly selected as training point or test point
"methyl 2,2,2-trifluoroacetate",266.15,1,COC(=O)C(F)(F)F,le15,0,0,0,0,randonly selected as training point or test point
"2,4,6(1H,3H,5H)-Pyrimidinetrione",423.15,1,O=C1CC(=O)NC(=O)N1,le15,0,0,0,0,randonly selected as training point or test point
"1,1,1-Trifluoro-2-methylpropan-2-ol",320.55,1,CC(C)(O)C(F)(F)F,le15,0,0,0,0,randonly selected as training point or test point
"4,4,4-trifluorobutan-1-ol",306.95,1,OCCCC(F)(F)F,le15,0,0,0,0,randonly selected as training point or test point
"1,4-Benzenedicarbonitrile",415.95,1,N#Cc1ccc(C#N)cc1,le15,0,0,0,0,randonly selected as training point or test point
"6,8-Dioxabicyclo(3.2.1)octan-7-one",362.95,1,O=C1OC2CCCC1O2,le15,0,0,0,0,randonly selected as training point or test point
"1,2-Benzenedicarbonitrile",426.45,1,N#Cc1ccccc1C#N,le15,0,0,0,0,randonly selected as training point or test point
"2-Propenoic acid, oxiranylmethyl ester",349.25,1,C=CC(=O)OCC1CO1,le15,0,0,0,1,randonly selected as training point or test point
"1,3-Benzenedicarbonitrile",416.15,1,N#Cc1cccc(C#N)c1,le15,0,0,0,0,randonly selected as training point or test point
Cyclohexanecarboxylic acid,380.15,1,O=C(O)C1CCCCC1,le15,0,0,0,1,randonly selected as training point or test point
"2-Propenoic acid, 2-methylpropyl ester",305.95,1,C=CC(=O)OCC(C)C,le15,0,0,0,1,randonly selected as training point or test point
Acrylic acid butyl ester (8CI),312.55,1,C=CC(=O)OCCCC,le15,0,0,0,1,randonly selected as training point or test point
hept-6-enoic acid,386.45,1,C=CCCCCC(=O)O,le15,0,0,0,1,randonly selected as training point or test point
2-cyclopentylacetic acid,387.15,1,O=C(O)CC1CCCC1,le15,0,0,0,1,randonly selected as training point or test point
"2-Buten-1-ol, 3-methyl-, acetate",322.15,1,CC(=O)OCC=C(C)C,le15,0,0,0,0,randonly selected as training point or test point
"2-Oxepanone, methyl-",359.15,1,CC1CCCCOC1=O,le15,0,0,0,0,randonly selected as training point or test point
"2-Propenoic acid, 2-methyl-, propyl ester",307.85,1,C=C(C)C(=O)OCCC,le15,0,0,0,1,randonly selected as training point or test point
"3,3-dimethylpentane-2,4-dione",330.15,1,CC(=O)C(C)(C)C(C)=O,le15,0,0,0,0,randonly selected as training point or test point
ethenyl pentanoate,311.55,1,C=COC(=O)CCCC,le15,0,0,0,0,randonly selected as training point or test point
cyclohexyl formate,326.45,1,O=COC1CCCCC1,le15,0,0,0,0,randonly selected as training point or test point
"3-methylhexane-2,5-dione",344.15,1,CC(=O)CC(C)C(C)=O,le15,0,0,0,0,randonly selected as training point or test point
"2-Propenoic acid, 2-methyl-, 1-methylethyl ester",304.15,1,C=C(C)C(=O)OC(C)C,le15,0,0,0,1,randonly selected as training point or test point
"Crotonic acid, 2-methyl-, ethyl ester, (E)- (8CI)",317.15,1,C/C=C(\C)C(=O)OCC,le15,0,0,0,1,randonly selected as training point or test point
"3,5-Heptanedione",336.55,1,CCC(=O)CC(=O)CC,le15,0,0,0,0,randonly selected as training point or test point
"3,3-diethoxyprop-1-yne",305.35,1,C#CC(OCC)OCC,le15,0,0,0,0,randonly selected as training point or test point
"2,3-Hexanedione, 5-methyl-",306.15,1,CC(=O)C(=O)CC(C)C,le15,0,0,0,0,randonly selected as training point or test point
ethyl cyclobutanecarboxylate,316.35,1,CCOC(=O)C1CCC1,le15,0,0,0,0,randonly selected as training point or test point
"3,4-Dihydro-2H-pyran-2-yl ethyl ether",297.55,1,CCOC1CCC=CO1,le15,0,0,0,0,randonly selected as training point or test point
"2-Butenoic acid, 3-methyl-, ethyl ester",307.05,1,CCOC(=O)C=C(C)C,le15,0,0,0,1,randonly selected as training point or test point
"4H-Pyran-4-one, tetrahydro-2,6-dimethyl-",338.65,1,CC1CC(=O)CC(C)O1,le15,0,0,0,0,randonly selected as training point or test point
"3-ethylpentane-2,4-dione",333.35,1,CCC(C(C)=O)C(C)=O,le15,0,0,0,0,randonly selected as training point or test point
"Acrylic acid, tert-butyl ester (8CI)",304.75,1,C=CC(=O)OC(C)(C)C,le15,0,0,0,1,randonly selected as training point or test point
"Butanoic acid, 2-propenyl ester",314.85,1,C=CCOC(=O)CCC,le15,0,0,0,1,randonly selected as training point or test point
(E)-hept-2-enoic acid,406.55,1,CCCC/C=C/C(=O)O,le15,0,0,0,1,randonly selected as training point or test point
butyl2propenoat,310.0,1,C=CC(=O)OCCCC,le15,0,0,0,0,randonly selected as training point or test point
"1H-Azepine, hexahydro-1-nitroso-",376.35,1,O=NN1CCCCCC1,le15,0,0,0,0,randonly selected as training point or test point
"2(1H)-Pyrimidinone, tetrahydro-1,3-dimethyl-",358.45,1,CN1CCCN(C)C1=O,le15,0,0,0,0,randonly selected as training point or test point
octan-3-one,319.15,1,CCCCCC(=O)CC,le15,0,0,0,0,randonly selected as training point or test point
"2-(2,2-dimethylpropyl)-2-methyloxirane",301.15,1,CC(C)(C)CC1(C)CO1,le15,0,0,0,0,randonly selected as training point or test point
"Hexanal, 2-ethyl-",323.15,1,CCCCC(C=O)CC,le15,0,0,0,0,randonly selected as training point or test point
6-methylheptan-2-one,317.75,1,CC(=O)CCCC(C)C,le15,0,0,0,0,randonly selected as training point or test point
"Cyclohexanemethanol, alpha-methyl-",346.15,1,CC(O)C1CCCCC1,le15,0,0,0,0,randonly selected as training point or test point
6-methylhept-5-en-2-ol,340.95,1,CC(C)=CCCC(C)O,le15,0,0,0,0,randonly selected as training point or test point
3-methylheptan-2-one,317.75,1,CCCCC(C)C(C)=O,le15,0,0,0,0,randonly selected as training point or test point
"Oxirane, hexyl- (9CI)",310.35,1,CCCCCCC1CO1,le15,0,0,0,0,randonly selected as training point or test point
"2,2,4,4-tetramethyloxolane",297.45,1,CC1(C)COC(C)(C)C1,le15,0,0,0,0,randonly selected as training point or test point
Oct-1-ene-3-ol,334.25,1,C=CC(O)CCCCC,le15,0,0,0,0,randonly selected as training point or test point
1-methylcycloheptan-1-ol,344.75,1,CC1(O)CCCCCC1,le15,0,0,0,0,randonly selected as training point or test point
"Ethanol, 2-cyclohexyl-",359.85,1,OCCC1CCCCC1,le15,0,0,0,0,randonly selected as training point or test point
1-ethenoxyhexane,282.95,1,C=COCCCCCC,le15,0,0,0,0,randonly selected as training point or test point
"3,5-dimethylcyclohexan-1-ol",346.45,1,CC1CC(C)CC(O)C1,le15,0,0,0,0,randonly selected as training point or test point
"3,4-dimethylcyclohexan-1-ol",351.45,1,CC1CCC(O)CC1C,le15,0,0,0,0,randonly selected as training point or test point
2-methylheptan-3-one,317.35,1,CCCCC(=O)C(C)C,le15,0,0,0,0,randonly selected as training point or test point
"Furan, tetrahydro-2,2,5,5-tetramethyl-",277.05,1,CC1(C)CCC(C)(C)O1,le15,0,0,0,0,randonly selected as training point or test point
3-methylheptan-4-one,317.75,1,CCCC(=O)C(C)CC,le15,0,0,0,0,randonly selected as training point or test point
"3,4-dimethylhexan-2-one",307.35,1,CCC(C)C(C)C(C)=O,le15,0,0,0,0,randonly selected as training point or test point
"3,3-dimethylhexan-2-one",307.55,1,CCCC(C)(C)C(C)=O,le15,0,0,0,0,randonly selected as training point or test point
"2,5-dimethylhexan-3-one",307.35,1,CC(C)CC(=O)C(C)C,le15,0,0,0,0,randonly selected as training point or test point
1-ethylcyclohexan-1-ol,341.35,1,CCC1(O)CCCCC1,le15,0,0,0,0,randonly selected as training point or test point
"3,5-dimethylhex-1-en-3-ol",313.25,1,C=CC(C)(O)CC(C)C,le15,0,0,0,0,randonly selected as training point or test point
tert-Butyl propyl ketone,307.55,1,CCCC(=O)C(C)(C)C,le15,0,0,0,0,randonly selected as training point or test point
3octanone,326.0,1,CCCCCC(=O)CC,le15,0,0,0,0,randonly selected as training point or test point
5methyl3heptanone,316.0,1,CCC(=O)CC(C)CC,le15,0,0,0,0,randonly selected as training point or test point
"1,2,4-trimethylpiperazine",304.25,1,CC1CN(C)CCN1C,le15,0,0,0,0,randonly selected as training point or test point
"Piperazine, 1-(1-methylethyl)- (9CI)",329.55,1,CC(C)N1CCNCC1,le15,0,0,0,0,randonly selected as training point or test point
1-ethylpiperidin-3-amine,333.75,1,CCN1CCCC(N)C1,le15,0,0,0,0,randonly selected as training point or test point
"2,3,4-trimethylhexane",301.15,1,CCC(C)C(C)C(C)C,le15,0,0,0,0,randonly selected as training point or test point
"3,4-dimethylheptane",333.15,1,CCCC(C)C(C)CC,le15,0,0,0,0,randonly selected as training point or test point
"3,5-dimethylheptane",328.05,1,CCC(C)CC(C)CC,le15,0,0,0,0,randonly selected as training point or test point
"3,3-diethylpentane",305.95,1,CCC(CC)(CC)CC,le15,0,0,0,0,randonly selected as training point or test point
"2,2,4,4-tetramethylpentane",292.45,1,CC(C)(C)CC(C)(C)C,le15,0,0,0,0,randonly selected as training point or test point
"2,2-dimethylheptane",297.55,1,CCCCCC(C)(C)C,le15,0,0,0,0,randonly selected as training point or test point
"2,6-dimethylheptane",326.25,1,CC(C)CCCC(C)C,le15,0,0,0,0,randonly selected as training point or test point
"2,2,3,4-tetramethylpentane",298.65,1,CC(C)C(C)C(C)(C)C,le15,0,0,0,0,randonly selected as training point or test point
"2,5-dimethylheptane",327.35,1,CCC(C)CCC(C)C,le15,0,0,0,0,randonly selected as training point or test point
4-ethylheptane,297.15,1,CCCC(CC)CCC,le15,0,0,0,0,randonly selected as training point or test point
3-methyloctane,298.45,1,CCCCCC(C)CC,le15,0,0,0,0,randonly selected as training point or test point
"Heptane, 2,3-dimethyl-",333.25,1,CCCCC(C)C(C)C,le15,0,0,0,0,randonly selected as training point or test point
3-ethyl-3-methylhexane,302.35,1,CCCC(C)(CC)CC,le15,0,0,0,0,randonly selected as training point or test point
"3,3-dimethylheptane",300.35,1,CCCCC(C)(C)CC,le15,0,0,0,0,randonly selected as training point or test point
"2,2,3,3-tetramethylpentane",302.15,1,CCC(C)(C)C(C)(C)C,le15,0,0,0,0,randonly selected as training point or test point
3-ethylheptane,298.25,1,CCCCC(CC)CC,le15,0,0,0,0,randonly selected as training point or test point
"2,2,3-trimethylhexane",298.55,1,CCCC(C)C(C)(C)C,le15,0,0,0,0,randonly selected as training point or test point
"2,2,4-trimethylhexane",294.05,1,CCC(C)CC(C)(C)C,le15,0,0,0,0,randonly selected as training point or test point
"2,3,3-trimethylhexane",300.85,1,CCCC(C)(C)C(C)C,le15,0,0,0,0,randonly selected as training point or test point
"2,4,4-trimethylhexane",296.25,1,CCC(C)(C)CC(C)C,le15,0,0,0,0,randonly selected as training point or test point
"2,3,3,4-tetramethylpentane",302.65,1,CC(C)C(C)(C)C(C)C,le15,0,0,0,0,randonly selected as training point or test point
3-ethyl-2-methylhexane,330.45,1,CCCC(CC)C(C)C,le15,0,0,0,0,randonly selected as training point or test point
4-methyloctane,297.35,1,CCCCC(C)CCC,le15,0,0,0,0,randonly selected as training point or test point
4-ethyl-2-methylhexane,325.35,1,CCC(CC)CC(C)C,le15,0,0,0,0,randonly selected as training point or test point
2-methyloctane,298.35,1,CCCCCCC(C)C,le15,0,0,0,0,randonly selected as training point or test point
"3,3,4-trimethylhexane",301.75,1,CCC(C)C(C)(C)CC,le15,0,0,0,0,randonly selected as training point or test point
3methyl4ethylhexane,297.0,1,CCC(C)C(CC)CC,le15,0,0,0,0,randonly selected as training point or test point
"Phenol, 3-chloro-",350.05,1,Oc1cccc(Cl)c1,le15,0,0,0,0,randonly selected as training point or test point
"Phenol, 2-chloro-",337.05,1,Oc1ccccc1Cl,le15,0,0,0,0,randonly selected as training point or test point
4chlorophenol,388.0,1,Oc1ccc(Cl)cc1,le15,0,0,0,0,randonly selected as training point or test point
ethanesulfonyl chloride,326.45,1,CCS(=O)(=O)Cl,le15,0,0,0,0,randonly selected as training point or test point
chloromethyl carbonochloridate,298.65,1,O=C(Cl)OCCl,le15,0,0,0,0,randonly selected as training point or test point
"s-Triazine-2,4,6(1H,3H,5H)-trione (8CI)",706.75,1,O=c1[nH]c(=O)[nH]c(=O)[nH]1,le15,0,0,0,0,randonly selected as training point or test point
"Benzenamine, 2,4-difluoro-",335.15,1,Nc1ccc(F)cc1F,le15,0,0,0,0,randonly selected as training point or test point
"Benzenamine, 3,4-difluoro-",358.15,1,Nc1ccc(F)c(F)c1,le15,0,0,0,0,randonly selected as training point or test point
"Proline, 5-oxo-, L-",500.95,1,O=C1CC[C@@H](C(=O)O)N1,le15,0,0,0,0,randonly selected as training point or test point
"Urea, N-nitroso-N-2-propenyl- (9CI)",349.15,1,C=CCN(N=O)C(N)=O,le15,0,0,0,0,randonly selected as training point or test point
2-nitrothiophene,367.05,1,O=[N+]([O-])c1cccs1,le15,0,0,0,0,randonly selected as training point or test point
3-nitrothiophene,363.65,1,O=[N+]([O-])c1ccsc1,le15,0,0,0,0,randonly selected as training point or test point
Quinoline,374.15,1,c1ccc2ncccc2c1,le15,0,0,0,0,randonly selected as training point or test point
Isoquinoline,374.25,1,c1ccc2cnccc2c1,le15,0,0,0,0,randonly selected as training point or test point
(E)-3-phenylprop-2-enenitrile,378.35,1,N#C/C=C/c1ccccc1,le15,0,0,0,0,randonly selected as training point or test point
1-Aminocyclopentane-1-carboxylic acid,381.85,1,NC1(C(=O)O)CCCC1,le15,0,0,0,1,randonly selected as training point or test point
nitrocyclohexane,354.35,1,O=[N+]([O-])C1CCCCC1,le15,0,0,0,0,randonly selected as training point or test point
"Morpholine, 4-acetyl-",395.15,1,CC(=O)N1CCOCC1,le15,0,0,0,0,randonly selected as training point or test point
"Butanamide, N,N-dimethyl-3-oxo-",355.55,1,CC(=O)CC(=O)N(C)C,le15,0,0,0,0,randonly selected as training point or test point
"2-Pyrrolidinone, 1-(2-hydroxyethyl)-",373.15,1,O=C1CCCN1CCO,le15,0,0,0,0,randonly selected as training point or test point
"3-Hexene, 3-nitro-",338.75,1,CCC=C(CC)[N+](=O)[O-],le15,0,0,0,0,randonly selected as training point or test point
N-acetyl-N-ethylacetamide,347.55,1,CCN(C(C)=O)C(C)=O,le15,0,0,0,0,randonly selected as training point or test point
2-piperidin-4-ylethanol,374.85,1,OCCC1CCNCC1,le15,0,0,0,0,randonly selected as training point or test point
"N-(2,4-dimethylpentan-3-ylidene)hydroxylamine",371.95,1,CC(C)C(=NO)C(C)C,le15,0,0,0,0,randonly selected as training point or test point
"N,N-diethylpropanamide",346.75,1,CCC(=O)N(CC)CC,le15,0,0,0,0,randonly selected as training point or test point
2-piperidin-2-ylethanol,375.35,1,OCCC1CCCCN1,le15,0,0,0,0,randonly selected as training point or test point
"Oxiranemethanamine, N,N-diethyl- (9CI)",314.25,1,CCN(CC)CC1CO1,le15,0,0,0,0,randonly selected as training point or test point
"2-Heptanone, oxime",613.85,1,CCCCCC(C)=NO,le15,0,0,0,0,randonly selected as training point or test point
(1-methylpiperidin-3-yl)methanol,367.55,1,CN1CCCC(CO)C1,le15,0,0,0,0,randonly selected as training point or test point
1-Piperidineethanol,364.35,1,OCCN1CCCCC1,le15,0,0,0,0,randonly selected as training point or test point
"1,3,5-trimethyl-1,3,5-triazinane",322.55,1,CN1CN(C)CN(C)C1,le15,0,0,0,0,randonly selected as training point or test point
"Piperazine, 1-(2-aminoethyl)-",366.15,1,NCCN1CCNCC1,le15,0,0,0,0,randonly selected as training point or test point
Neopentyl isothiocyanate,327.503,1,CC(C)(C)CN=C=S,le15,0,0,0,0,randonly selected as training point or test point
Pentyl isothiocyanate,338.35,1,CCCCCN=C=S,le15,0,0,0,0,randonly selected as training point or test point
"1-Hexanamine, 2-ethyl-",325.35,1,CCCCC(CC)CN,le15,0,0,0,0,randonly selected as training point or test point
"Butylamine, 1,1,3,3-tetramethyl- (6CI,7CI,8CI)",305.15,1,CC(C)(C)CC(C)(C)N,le15,0,0,0,0,randonly selected as training point or test point
"1-Propanamine, 2-methyl-N-(2-methylpropyl)-",302.55,1,CC(C)CNCC(C)C,le15,0,0,0,0,randonly selected as training point or test point
N-butan-2-ylbutan-2-amine,293.75,1,CCC(C)NC(C)CC,le15,0,0,0,0,randonly selected as training point or test point
"Heptylamine, 1-methyl-",335.95,1,CCCCCCC(C)N,le15,0,0,0,0,randonly selected as training point or test point
"1-Butanamine, N,N-diethyl-",299.95,1,CCCCN(CC)CC,le15,0,0,0,0,randonly selected as training point or test point
N-ethyl-N-propan-2-ylpropan-2-amine,283.75,1,CCN(C(C)C)C(C)C,le15,0,0,0,0,randonly selected as training point or test point
"1-Butanamine, N-butyl-",314.25,1,CCCCNCCCC,le15,0,0,0,0,randonly selected as training point or test point
2ethyl1hexanamine,323.0,1,CCCCC(CC)CN,le15,0,0,0,0,randonly selected as training point or test point
"Methane, bromochloro-",284.15,1,ClCBr,le15,0,0,0,0,randonly selected as training point or test point
5-Chloropyridin-2-ol,402.75,1,Oc1ccc(Cl)cn1,le15,0,0,0,0,randonly selected as training point or test point
"3-Pyridinol, 2-chloro-",418.15,1,Oc1cccnc1Cl,le15,0,0,0,0,randonly selected as training point or test point
"Methane, dichloronitro-",296.35,1,O=[N+]([O-])C(Cl)Cl,le15,0,0,0,0,randonly selected as training point or test point
"2,4(1H,3H)-Pyrimidinedione, 5-fluoro-",469.65,1,O=c1[nH]cc(F)c(=O)[nH]1,le15,0,0,0,0,randonly selected as training point or test point
2-methylidenebutanedioic acid,471.85,1,C=C(CC(=O)O)C(=O)O,le15,0,0,0,1,randonly selected as training point or test point
"Propiolaldehyde, phenyl- (8CI)",367.55,1,O=CC#Cc1ccccc1,le15,0,0,0,0,randonly selected as training point or test point
Quinoxaline,371.15,1,c1ccc2nccnc2c1,le15,0,0,0,0,randonly selected as training point or test point
"Hexanedial, 2-hydroxy-",380.75,1,O=CCCCC(O)C=O,le15,0,0,0,0,randonly selected as training point or test point
"Butanoic acid, 3-oxo-, ethyl ester",340.15,1,CCOC(=O)CC(C)=O,le15,0,0,0,1,randonly selected as training point or test point
"3,3-dimethyl-2-oxobutanoic acid",351.55,1,CC(C)(C)C(=O)C(=O)O,le15,0,0,0,1,randonly selected as training point or test point
"2-Propenoic acid, 2-methyl-, 2-hydroxyethyl ester",370.372,1,C=C(C)C(=O)OCCO,le15,0,0,0,1,randonly selected as training point or test point
"2-Propenoic acid, 2-hydroxypropyl ester (9CI)",353.05,1,C=CC(=O)OCC(C)O,le15,0,0,0,1,randonly selected as training point or test point
"Oxirane, 2,2'-(oxybis(methylene))bis-",343.75,1,C(OCC1CO1)C1CO1,le15,0,0,0,0,randonly selected as training point or test point
"Acrylic acid, 2-methoxyethyl ester (8CI)",333.15,1,C=CC(=O)OCCOC,le15,0,0,0,1,randonly selected as training point or test point
quinazoline,379.817,1,c1ccc2ncncc2c1,le15,0,0,0,0,randonly selected as training point or test point
"2,5-dimethoxy-2,5-dihydrofuran",320.35,1,COC1C=CC(OC)O1,le15,0,0,0,0,randonly selected as training point or test point
"Butanoic acid, 4-oxo-, ethyl ester",341.65,1,CCOC(=O)CCC=O,le15,0,0,0,1,randonly selected as training point or test point
methyl 2-methyl-3-oxobutanoate,505.55,1,COC(=O)C(C)C(C)=O,le15,0,0,0,0,randonly selected as training point or test point
ethyl3oxobutanoat,343.0,1,CCOC(=O)CC(C)=O,le15,0,0,0,0,randonly selected as training point or test point
PropionicAnhydride,336.0,1,CCC(=O)OC(=O)CC,le15,0,0,0,0,randonly selected as training point or test point
1-nitropiperidine,391.25,1,O=[N+]([O-])N1CCCCC1,le15,0,0,0,0,randonly selected as training point or test point
"Naphthalene, 1,2-dihydro-",343.5,1,C1=Cc2ccccc2CC1,le15,0,0,0,0,randonly selected as training point or test point
"1,4-dihydronaphthalene",343.85,1,C1=CCc2ccccc2C1,le15,0,0,0,0,randonly selected as training point or test point
4-methyl-1H-indene,347.85,1,Cc1cccc2c1C=CC2,le15,0,0,0,0,randonly selected as training point or test point
7-methyl-1H-indene,348.05,1,Cc1cccc2c1CC=C2,le15,0,0,0,0,randonly selected as training point or test point
6-methyl-1H-indene,346.45,1,Cc1ccc2c(c1)CC=C2,le15,0,0,0,0,randonly selected as training point or test point